M 0.00000 0 (374.48, 652.27, 0.00), (205.47, 362.12), 3.18
M 0.00000 1 (735.08, 121.81, 0.00), (124.59, 43.34), 1.59
M 0.00000 2 (311.35, 399.51, 0.00), (216.12, 190.86), 8.77
M 0.00000 3 (610.92, 639.56, 0.00), (539.12, 639.79), 1.02
M 0.00000 4 (376.24, 88.97, 0.00), (439.08, 425.52), 1.38
M 0.00000 5 (523.16, 303.21, 0.00), (262.70, 635.80), 4.76
M 0.00000 6 (238.43, 793.10, 0.00), (454.37, 654.05), 1.31
M 0.00000 7 (316.47, 193.58, 0.00), (277.02, 720.72), 2.28
M 0.00000 8 (412.27, 426.39, 0.00), (735.13, 655.31), 3.03
M 0.00000 9 (278.65, 217.82, 0.00), (388.09, 201.59), 6.74
s 15.000000000 _1_ AGT  --- 0 cbr 512 [0 0 0 0] ------- [1:0 2:0 32 0] [0] 0 16777215
r 15.000000000 _1_ RTR  --- 0 cbr 512 [0 0 0 0] ------- [1:0 2:0 32 0] [0] 0 16777215
s 15.000000000 _1_ RTR  --- 0 AODV 48 [0 0 0 0] ------- [1:255 -1:255 30 0] [0x2 1 1 [2 0] [1 4]] (REQUEST)
s 15.000115000 _1_ MAC  --- 0 AODV 106 [0 ffffffff 1 800] ------- [1:255 -1:255 30 0] [0x2 1 1 [2 0] [1 4]] (REQUEST)
s 15.100067915 _1_ AGT  --- 1 cbr 512 [0 0 0 0] ------- [1:0 2:0 32 0] [1] 0 16777215
r 15.100067915 _1_ RTR  --- 1 cbr 512 [0 0 0 0] ------- [1:0 2:0 32 0] [1] 0 16777215
s 15.217692450 _1_ AGT  --- 2 cbr 512 [0 0 0 0] ------- [1:0 2:0 32 0] [2] 0 16777215
r 15.217692450 _1_ RTR  --- 2 cbr 512 [0 0 0 0] ------- [1:0 2:0 32 0] [2] 0 16777215
s 15.405927126 _1_ AGT  --- 3 cbr 512 [0 0 0 0] ------- [1:0 2:0 32 0] [3] 0 16777215
r 15.405927126 _1_ RTR  --- 3 cbr 512 [0 0 0 0] ------- [1:0 2:0 32 0] [3] 0 16777215
s 15.665758217 _1_ AGT  --- 4 cbr 512 [0 0 0 0] ------- [1:0 2:0 32 0] [4] 0 16777215
r 15.665758217 _1_ RTR  --- 4 cbr 512 [0 0 0 0] ------- [1:0 2:0 32 0] [4] 0 16777215
s 15.828350571 _1_ AGT  --- 5 cbr 512 [0 0 0 0] ------- [1:0 2:0 32 0] [5] 0 16777215
r 15.828350571 _1_ RTR  --- 5 cbr 512 [0 0 0 0] ------- [1:0 2:0 32 0] [5] 0 16777215
s 16.091645781 _1_ AGT  --- 6 cbr 512 [0 0 0 0] ------- [1:0 2:0 32 0] [6] 0 16777215
r 16.091645781 _1_ RTR  --- 6 cbr 512 [0 0 0 0] ------- [1:0 2:0 32 0] [6] 0 16777215
s 16.238566132 _1_ AGT  --- 7 cbr 512 [0 0 0 0] ------- [1:0 2:0 32 0] [7] 0 16777215
r 16.238566132 _1_ RTR  --- 7 cbr 512 [0 0 0 0] ------- [1:0 2:0 32 0] [7] 0 16777215
M 16.41552 9 (388.09, 201.59, 0.00), (388.09, 201.59), 0.00
s 16.466339160 _1_ AGT  --- 8 cbr 512 [0 0 0 0] ------- [1:0 2:0 32 0] [8] 0 16777215
r 16.466339160 _1_ RTR  --- 8 cbr 512 [0 0 0 0] ------- [1:0 2:0 32 0] [8] 0 16777215
s 16.628154972 _1_ AGT  --- 9 cbr 512 [0 0 0 0] ------- [1:0 2:0 32 0] [9] 0 16777215
r 16.628154972 _1_ RTR  --- 9 cbr 512 [0 0 0 0] ------- [1:0 2:0 32 0] [9] 0 16777215
s 16.895419679 _1_ AGT  --- 10 cbr 512 [0 0 0 0] ------- [1:0 2:0 32 0] [10] 0 16777215
r 16.895419679 _1_ RTR  --- 10 cbr 512 [0 0 0 0] ------- [1:0 2:0 32 0] [10] 0 16777215
s 16.895419679 _1_ RTR  --- 0 AODV 48 [0 0 0 0] ------- [1:255 -1:255 30 0] [0x2 1 2 [2 0] [1 6]] (REQUEST)
s 16.896034679 _1_ MAC  --- 0 AODV 106 [0 ffffffff 1 800] ------- [1:255 -1:255 30 0] [0x2 1 2 [2 0] [1 6]] (REQUEST)
s 17.028248761 _1_ AGT  --- 11 cbr 512 [0 0 0 0] ------- [1:0 2:0 32 0] [11] 0 16777215
r 17.028248761 _1_ RTR  --- 11 cbr 512 [0 0 0 0] ------- [1:0 2:0 32 0] [11] 0 16777215
s 17.151010410 _1_ AGT  --- 12 cbr 512 [0 0 0 0] ------- [1:0 2:0 32 0] [12] 0 16777215
r 17.151010410 _1_ RTR  --- 12 cbr 512 [0 0 0 0] ------- [1:0 2:0 32 0] [12] 0 16777215
s 17.422955950 _1_ AGT  --- 13 cbr 512 [0 0 0 0] ------- [1:0 2:0 32 0] [13] 0 16777215
r 17.422955950 _1_ RTR  --- 13 cbr 512 [0 0 0 0] ------- [1:0 2:0 32 0] [13] 0 16777215
s 17.607687297 _1_ AGT  --- 14 cbr 512 [0 0 0 0] ------- [1:0 2:0 32 0] [14] 0 16777215
r 17.607687297 _1_ RTR  --- 14 cbr 512 [0 0 0 0] ------- [1:0 2:0 32 0] [14] 0 16777215
s 17.742648348 _1_ AGT  --- 15 cbr 512 [0 0 0 0] ------- [1:0 2:0 32 0] [15] 0 16777215
r 17.742648348 _1_ RTR  --- 15 cbr 512 [0 0 0 0] ------- [1:0 2:0 32 0] [15] 0 16777215
s 17.861476119 _1_ AGT  --- 16 cbr 512 [0 0 0 0] ------- [1:0 2:0 32 0] [16] 0 16777215
r 17.861476119 _1_ RTR  --- 16 cbr 512 [0 0 0 0] ------- [1:0 2:0 32 0] [16] 0 16777215
s 18.122881830 _1_ AGT  --- 17 cbr 512 [0 0 0 0] ------- [1:0 2:0 32 0] [17] 0 16777215
r 18.122881830 _1_ RTR  --- 17 cbr 512 [0 0 0 0] ------- [1:0 2:0 32 0] [17] 0 16777215
s 18.292630035 _1_ AGT  --- 18 cbr 512 [0 0 0 0] ------- [1:0 2:0 32 0] [18] 0 16777215
r 18.292630035 _1_ RTR  --- 18 cbr 512 [0 0 0 0] ------- [1:0 2:0 32 0] [18] 0 16777215
s 18.444247624 _1_ AGT  --- 19 cbr 512 [0 0 0 0] ------- [1:0 2:0 32 0] [19] 0 16777215
r 18.444247624 _1_ RTR  --- 19 cbr 512 [0 0 0 0] ------- [1:0 2:0 32 0] [19] 0 16777215
s 18.625984760 _1_ AGT  --- 20 cbr 512 [0 0 0 0] ------- [1:0 2:0 32 0] [20] 0 16777215
r 18.625984760 _1_ RTR  --- 20 cbr 512 [0 0 0 0] ------- [1:0 2:0 32 0] [20] 0 16777215
s 18.829714519 _1_ AGT  --- 21 cbr 512 [0 0 0 0] ------- [1:0 2:0 32 0] [21] 0 16777215
r 18.829714519 _1_ RTR  --- 21 cbr 512 [0 0 0 0] ------- [1:0 2:0 32 0] [21] 0 16777215
s 19.022937706 _1_ AGT  --- 22 cbr 512 [0 0 0 0] ------- [1:0 2:0 32 0] [22] 0 16777215
r 19.022937706 _1_ RTR  --- 22 cbr 512 [0 0 0 0] ------- [1:0 2:0 32 0] [22] 0 16777215
s 19.261399072 _1_ AGT  --- 23 cbr 512 [0 0 0 0] ------- [1:0 2:0 32 0] [23] 0 16777215
r 19.261399072 _1_ RTR  --- 23 cbr 512 [0 0 0 0] ------- [1:0 2:0 32 0] [23] 0 16777215
s 19.533812529 _1_ AGT  --- 24 cbr 512 [0 0 0 0] ------- [1:0 2:0 32 0] [24] 0 16777215
r 19.533812529 _1_ RTR  --- 24 cbr 512 [0 0 0 0] ------- [1:0 2:0 32 0] [24] 0 16777215
s 19.801777569 _1_ AGT  --- 25 cbr 512 [0 0 0 0] ------- [1:0 2:0 32 0] [25] 0 16777215
r 19.801777569 _1_ RTR  --- 25 cbr 512 [0 0 0 0] ------- [1:0 2:0 32 0] [25] 0 16777215
s 19.945209461 _1_ AGT  --- 26 cbr 512 [0 0 0 0] ------- [1:0 2:0 32 0] [26] 0 16777215
r 19.945209461 _1_ RTR  --- 26 cbr 512 [0 0 0 0] ------- [1:0 2:0 32 0] [26] 0 16777215
s 20.093454587 _1_ AGT  --- 27 cbr 512 [0 0 0 0] ------- [1:0 2:0 32 0] [27] 0 16777215
r 20.093454587 _1_ RTR  --- 27 cbr 512 [0 0 0 0] ------- [1:0 2:0 32 0] [27] 0 16777215
s 20.363675897 _1_ AGT  --- 28 cbr 512 [0 0 0 0] ------- [1:0 2:0 32 0] [28] 0 16777215
r 20.363675897 _1_ RTR  --- 28 cbr 512 [0 0 0 0] ------- [1:0 2:0 32 0] [28] 0 16777215
s 20.500000000 _1_ RTR  --- 0 AODV 48 [0 0 0 0] ------- [1:255 -1:255 30 0] [0x2 1 3 [2 0] [1 8]] (REQUEST)
s 20.500435000 _1_ MAC  --- 0 AODV 106 [0 ffffffff 1 800] ------- [1:255 -1:255 30 0] [0x2 1 3 [2 0] [1 8]] (REQUEST)
s 20.599145686 _1_ AGT  --- 29 cbr 512 [0 0 0 0] ------- [1:0 2:0 32 0] [29] 0 16777215
r 20.599145686 _1_ RTR  --- 29 cbr 512 [0 0 0 0] ------- [1:0 2:0 32 0] [29] 0 16777215
s 20.780249501 _1_ AGT  --- 30 cbr 512 [0 0 0 0] ------- [1:0 2:0 32 0] [30] 0 16777215
r 20.780249501 _1_ RTR  --- 30 cbr 512 [0 0 0 0] ------- [1:0 2:0 32 0] [30] 0 16777215
s 20.902089195 _1_ AGT  --- 31 cbr 512 [0 0 0 0] ------- [1:0 2:0 32 0] [31] 0 16777215
r 20.902089195 _1_ RTR  --- 31 cbr 512 [0 0 0 0] ------- [1:0 2:0 32 0] [31] 0 16777215
s 21.082930701 _1_ AGT  --- 32 cbr 512 [0 0 0 0] ------- [1:0 2:0 32 0] [32] 0 16777215
r 21.082930701 _1_ RTR  --- 32 cbr 512 [0 0 0 0] ------- [1:0 2:0 32 0] [32] 0 16777215
s 21.220403749 _1_ AGT  --- 33 cbr 512 [0 0 0 0] ------- [1:0 2:0 32 0] [33] 0 16777215
r 21.220403749 _1_ RTR  --- 33 cbr 512 [0 0 0 0] ------- [1:0 2:0 32 0] [33] 0 16777215
M 21.41552 9 (388.09, 201.59, 0.00), (680.11, 306.51), 4.62
s 21.497892459 _1_ AGT  --- 34 cbr 512 [0 0 0 0] ------- [1:0 2:0 32 0] [34] 0 16777215
r 21.497892459 _1_ RTR  --- 34 cbr 512 [0 0 0 0] ------- [1:0 2:0 32 0] [34] 0 16777215
s 21.787145449 _1_ AGT  --- 35 cbr 512 [0 0 0 0] ------- [1:0 2:0 32 0] [35] 0 16777215
r 21.787145449 _1_ RTR  --- 35 cbr 512 [0 0 0 0] ------- [1:0 2:0 32 0] [35] 0 16777215
s 22.065415014 _1_ AGT  --- 36 cbr 512 [0 0 0 0] ------- [1:0 2:0 32 0] [36] 0 16777215
r 22.065415014 _1_ RTR  --- 36 cbr 512 [0 0 0 0] ------- [1:0 2:0 32 0] [36] 0 16777215
s 22.187821277 _1_ AGT  --- 37 cbr 512 [0 0 0 0] ------- [1:0 2:0 32 0] [37] 0 16777215
r 22.187821277 _1_ RTR  --- 37 cbr 512 [0 0 0 0] ------- [1:0 2:0 32 0] [37] 0 16777215
s 22.299501802 _1_ AGT  --- 38 cbr 512 [0 0 0 0] ------- [1:0 2:0 32 0] [38] 0 16777215
r 22.299501802 _1_ RTR  --- 38 cbr 512 [0 0 0 0] ------- [1:0 2:0 32 0] [38] 0 16777215
s 22.401663470 _1_ AGT  --- 39 cbr 512 [0 0 0 0] ------- [1:0 2:0 32 0] [39] 0 16777215
r 22.401663470 _1_ RTR  --- 39 cbr 512 [0 0 0 0] ------- [1:0 2:0 32 0] [39] 0 16777215
s 22.620668947 _1_ AGT  --- 40 cbr 512 [0 0 0 0] ------- [1:0 2:0 32 0] [40] 0 16777215
r 22.620668947 _1_ RTR  --- 40 cbr 512 [0 0 0 0] ------- [1:0 2:0 32 0] [40] 0 16777215
s 22.787801499 _1_ AGT  --- 41 cbr 512 [0 0 0 0] ------- [1:0 2:0 32 0] [41] 0 16777215
r 22.787801499 _1_ RTR  --- 41 cbr 512 [0 0 0 0] ------- [1:0 2:0 32 0] [41] 0 16777215
s 22.912422198 _1_ AGT  --- 42 cbr 512 [0 0 0 0] ------- [1:0 2:0 32 0] [42] 0 16777215
r 22.912422198 _1_ RTR  --- 42 cbr 512 [0 0 0 0] ------- [1:0 2:0 32 0] [42] 0 16777215
s 23.146146977 _1_ AGT  --- 43 cbr 512 [0 0 0 0] ------- [1:0 2:0 32 0] [43] 0 16777215
r 23.146146977 _1_ RTR  --- 43 cbr 512 [0 0 0 0] ------- [1:0 2:0 32 0] [43] 0 16777215
s 23.297545725 _1_ AGT  --- 44 cbr 512 [0 0 0 0] ------- [1:0 2:0 32 0] [44] 0 16777215
r 23.297545725 _1_ RTR  --- 44 cbr 512 [0 0 0 0] ------- [1:0 2:0 32 0] [44] 0 16777215
s 23.537280370 _1_ AGT  --- 45 cbr 512 [0 0 0 0] ------- [1:0 2:0 32 0] [45] 0 16777215
r 23.537280370 _1_ RTR  --- 45 cbr 512 [0 0 0 0] ------- [1:0 2:0 32 0] [45] 0 16777215
s 23.746244763 _1_ AGT  --- 46 cbr 512 [0 0 0 0] ------- [1:0 2:0 32 0] [46] 0 16777215
r 23.746244763 _1_ RTR  --- 46 cbr 512 [0 0 0 0] ------- [1:0 2:0 32 0] [46] 0 16777215
s 24.021575898 _1_ AGT  --- 47 cbr 512 [0 0 0 0] ------- [1:0 2:0 32 0] [47] 0 16777215
r 24.021575898 _1_ RTR  --- 47 cbr 512 [0 0 0 0] ------- [1:0 2:0 32 0] [47] 0 16777215
s 24.173940728 _1_ AGT  --- 48 cbr 512 [0 0 0 0] ------- [1:0 2:0 32 0] [48] 0 16777215
r 24.173940728 _1_ RTR  --- 48 cbr 512 [0 0 0 0] ------- [1:0 2:0 32 0] [48] 0 16777215
s 24.384908662 _1_ AGT  --- 49 cbr 512 [0 0 0 0] ------- [1:0 2:0 32 0] [49] 0 16777215
r 24.384908662 _1_ RTR  --- 49 cbr 512 [0 0 0 0] ------- [1:0 2:0 32 0] [49] 0 16777215
s 24.570046118 _1_ AGT  --- 50 cbr 512 [0 0 0 0] ------- [1:0 2:0 32 0] [50] 0 16777215
r 24.570046118 _1_ RTR  --- 50 cbr 512 [0 0 0 0] ------- [1:0 2:0 32 0] [50] 0 16777215
s 24.675557612 _1_ AGT  --- 51 cbr 512 [0 0 0 0] ------- [1:0 2:0 32 0] [51] 0 16777215
r 24.675557612 _1_ RTR  --- 51 cbr 512 [0 0 0 0] ------- [1:0 2:0 32 0] [51] 0 16777215
s 24.841021012 _1_ AGT  --- 52 cbr 512 [0 0 0 0] ------- [1:0 2:0 32 0] [52] 0 16777215
r 24.841021012 _1_ RTR  --- 52 cbr 512 [0 0 0 0] ------- [1:0 2:0 32 0] [52] 0 16777215
s 24.978263863 _1_ AGT  --- 53 cbr 512 [0 0 0 0] ------- [1:0 2:0 32 0] [53] 0 16777215
r 24.978263863 _1_ RTR  --- 53 cbr 512 [0 0 0 0] ------- [1:0 2:0 32 0] [53] 0 16777215
s 25.235261284 _1_ AGT  --- 54 cbr 512 [0 0 0 0] ------- [1:0 2:0 32 0] [54] 0 16777215
r 25.235261284 _1_ RTR  --- 54 cbr 512 [0 0 0 0] ------- [1:0 2:0 32 0] [54] 0 16777215
s 25.524624521 _1_ AGT  --- 55 cbr 512 [0 0 0 0] ------- [1:0 2:0 32 0] [55] 0 16777215
r 25.524624521 _1_ RTR  --- 55 cbr 512 [0 0 0 0] ------- [1:0 2:0 32 0] [55] 0 16777215
s 25.779163669 _1_ AGT  --- 56 cbr 512 [0 0 0 0] ------- [1:0 2:0 32 0] [56] 0 16777215
r 25.779163669 _1_ RTR  --- 56 cbr 512 [0 0 0 0] ------- [1:0 2:0 32 0] [56] 0 16777215
s 25.920510474 _1_ AGT  --- 57 cbr 512 [0 0 0 0] ------- [1:0 2:0 32 0] [57] 0 16777215
r 25.920510474 _1_ RTR  --- 57 cbr 512 [0 0 0 0] ------- [1:0 2:0 32 0] [57] 0 16777215
s 25.920510474 _1_ RTR  --- 0 AODV 48 [0 0 0 0] ------- [1:255 -1:255 30 0] [0x2 1 4 [2 0] [1 10]] (REQUEST)
s 25.920825474 _1_ MAC  --- 0 AODV 106 [0 ffffffff 1 800] ------- [1:255 -1:255 30 0] [0x2 1 4 [2 0] [1 10]] (REQUEST)
s 26.159497927 _1_ AGT  --- 58 cbr 512 [0 0 0 0] ------- [1:0 2:0 32 0] [58] 0 16777215
r 26.159497927 _1_ RTR  --- 58 cbr 512 [0 0 0 0] ------- [1:0 2:0 32 0] [58] 0 16777215
M 26.16439 2 (216.12, 190.86, 0.00), (216.12, 190.86), 0.00
s 26.277769310 _1_ AGT  --- 59 cbr 512 [0 0 0 0] ------- [1:0 2:0 32 0] [59] 0 16777215
r 26.277769310 _1_ RTR  --- 59 cbr 512 [0 0 0 0] ------- [1:0 2:0 32 0] [59] 0 16777215
s 26.476113651 _1_ AGT  --- 60 cbr 512 [0 0 0 0] ------- [1:0 2:0 32 0] [60] 0 16777215
r 26.476113651 _1_ RTR  --- 60 cbr 512 [0 0 0 0] ------- [1:0 2:0 32 0] [60] 0 16777215
s 26.586140332 _1_ AGT  --- 61 cbr 512 [0 0 0 0] ------- [1:0 2:0 32 0] [61] 0 16777215
r 26.586140332 _1_ RTR  --- 61 cbr 512 [0 0 0 0] ------- [1:0 2:0 32 0] [61] 0 16777215
s 26.859161428 _1_ AGT  --- 62 cbr 512 [0 0 0 0] ------- [1:0 2:0 32 0] [62] 0 16777215
r 26.859161428 _1_ RTR  --- 62 cbr 512 [0 0 0 0] ------- [1:0 2:0 32 0] [62] 0 16777215
s 27.065741138 _1_ AGT  --- 63 cbr 512 [0 0 0 0] ------- [1:0 2:0 32 0] [63] 0 16777215
r 27.065741138 _1_ RTR  --- 63 cbr 512 [0 0 0 0] ------- [1:0 2:0 32 0] [63] 0 16777215
s 27.312759364 _1_ AGT  --- 64 cbr 512 [0 0 0 0] ------- [1:0 2:0 32 0] [64] 0 16777215
r 27.312759364 _1_ RTR  --- 64 cbr 512 [0 0 0 0] ------- [1:0 2:0 32 0] [64] 0 16777215
D 27.312759364 _1_ RTR  IFQ 0 cbr 532 [0 0 0 0] ------- [1:0 2:0 30 0] [0] 0 16777215
s 27.497003374 _1_ AGT  --- 65 cbr 512 [0 0 0 0] ------- [1:0 2:0 32 0] [65] 0 16777215
r 27.497003374 _1_ RTR  --- 65 cbr 512 [0 0 0 0] ------- [1:0 2:0 32 0] [65] 0 16777215
D 27.497003374 _1_ RTR  IFQ 1 cbr 532 [0 0 0 0] ------- [1:0 2:0 30 0] [1] 0 16777215
s 27.614643403 _1_ AGT  --- 66 cbr 512 [0 0 0 0] ------- [1:0 2:0 32 0] [66] 0 16777215
r 27.614643403 _1_ RTR  --- 66 cbr 512 [0 0 0 0] ------- [1:0 2:0 32 0] [66] 0 16777215
D 27.614643403 _1_ RTR  IFQ 2 cbr 532 [0 0 0 0] ------- [1:0 2:0 30 0] [2] 0 16777215
s 27.877523434 _1_ AGT  --- 67 cbr 512 [0 0 0 0] ------- [1:0 2:0 32 0] [67] 0 16777215
r 27.877523434 _1_ RTR  --- 67 cbr 512 [0 0 0 0] ------- [1:0 2:0 32 0] [67] 0 16777215
D 27.877523434 _1_ RTR  IFQ 3 cbr 532 [0 0 0 0] ------- [1:0 2:0 30 0] [3] 0 16777215
s 28.158092962 _1_ AGT  --- 68 cbr 512 [0 0 0 0] ------- [1:0 2:0 32 0] [68] 0 16777215
r 28.158092962 _1_ RTR  --- 68 cbr 512 [0 0 0 0] ------- [1:0 2:0 32 0] [68] 0 16777215
D 28.158092962 _1_ RTR  IFQ 4 cbr 532 [0 0 0 0] ------- [1:0 2:0 30 0] [4] 0 16777215
s 28.403701317 _1_ AGT  --- 69 cbr 512 [0 0 0 0] ------- [1:0 2:0 32 0] [69] 0 16777215
r 28.403701317 _1_ RTR  --- 69 cbr 512 [0 0 0 0] ------- [1:0 2:0 32 0] [69] 0 16777215
D 28.403701317 _1_ RTR  IFQ 5 cbr 532 [0 0 0 0] ------- [1:0 2:0 30 0] [5] 0 16777215
s 28.678630577 _1_ AGT  --- 70 cbr 512 [0 0 0 0] ------- [1:0 2:0 32 0] [70] 0 16777215
r 28.678630577 _1_ RTR  --- 70 cbr 512 [0 0 0 0] ------- [1:0 2:0 32 0] [70] 0 16777215
D 28.678630577 _1_ RTR  IFQ 6 cbr 532 [0 0 0 0] ------- [1:0 2:0 30 0] [6] 0 16777215
s 28.895853073 _1_ AGT  --- 71 cbr 512 [0 0 0 0] ------- [1:0 2:0 32 0] [71] 0 16777215
r 28.895853073 _1_ RTR  --- 71 cbr 512 [0 0 0 0] ------- [1:0 2:0 32 0] [71] 0 16777215
D 28.895853073 _1_ RTR  IFQ 7 cbr 532 [0 0 0 0] ------- [1:0 2:0 30 0] [7] 0 16777215
s 29.143021179 _1_ AGT  --- 72 cbr 512 [0 0 0 0] ------- [1:0 2:0 32 0] [72] 0 16777215
r 29.143021179 _1_ RTR  --- 72 cbr 512 [0 0 0 0] ------- [1:0 2:0 32 0] [72] 0 16777215
D 29.143021179 _1_ RTR  IFQ 8 cbr 532 [0 0 0 0] ------- [1:0 2:0 30 0] [8] 0 16777215
s 29.403423552 _1_ AGT  --- 73 cbr 512 [0 0 0 0] ------- [1:0 2:0 32 0] [73] 0 16777215
r 29.403423552 _1_ RTR  --- 73 cbr 512 [0 0 0 0] ------- [1:0 2:0 32 0] [73] 0 16777215
D 29.403423552 _1_ RTR  IFQ 9 cbr 532 [0 0 0 0] ------- [1:0 2:0 30 0] [9] 0 16777215
s 29.574635268 _1_ AGT  --- 74 cbr 512 [0 0 0 0] ------- [1:0 2:0 32 0] [74] 0 16777215
r 29.574635268 _1_ RTR  --- 74 cbr 512 [0 0 0 0] ------- [1:0 2:0 32 0] [74] 0 16777215
D 29.574635268 _1_ RTR  IFQ 10 cbr 532 [0 0 0 0] ------- [1:0 2:0 30 0] [10] 0 16777215
s 29.786316985 _1_ AGT  --- 75 cbr 512 [0 0 0 0] ------- [1:0 2:0 32 0] [75] 0 16777215
r 29.786316985 _1_ RTR  --- 75 cbr 512 [0 0 0 0] ------- [1:0 2:0 32 0] [75] 0 16777215
D 29.786316985 _1_ RTR  IFQ 11 cbr 532 [0 0 0 0] ------- [1:0 2:0 30 0] [11] 0 16777215
s 30.049433454 _1_ AGT  --- 76 cbr 512 [0 0 0 0] ------- [1:0 2:0 32 0] [76] 0 16777215
r 30.049433454 _1_ RTR  --- 76 cbr 512 [0 0 0 0] ------- [1:0 2:0 32 0] [76] 0 16777215
D 30.049433454 _1_ RTR  IFQ 12 cbr 532 [0 0 0 0] ------- [1:0 2:0 30 0] [12] 0 16777215
s 30.306188463 _1_ AGT  --- 77 cbr 512 [0 0 0 0] ------- [1:0 2:0 32 0] [77] 0 16777215
r 30.306188463 _1_ RTR  --- 77 cbr 512 [0 0 0 0] ------- [1:0 2:0 32 0] [77] 0 16777215
D 30.306188463 _1_ RTR  IFQ 13 cbr 532 [0 0 0 0] ------- [1:0 2:0 30 0] [13] 0 16777215
s 30.538893646 _1_ AGT  --- 78 cbr 512 [0 0 0 0] ------- [1:0 2:0 32 0] [78] 0 16777215
r 30.538893646 _1_ RTR  --- 78 cbr 512 [0 0 0 0] ------- [1:0 2:0 32 0] [78] 0 16777215
D 30.538893646 _1_ RTR  IFQ 14 cbr 532 [0 0 0 0] ------- [1:0 2:0 30 0] [14] 0 16777215
s 30.668891332 _1_ AGT  --- 79 cbr 512 [0 0 0 0] ------- [1:0 2:0 32 0] [79] 0 16777215
r 30.668891332 _1_ RTR  --- 79 cbr 512 [0 0 0 0] ------- [1:0 2:0 32 0] [79] 0 16777215
D 30.668891332 _1_ RTR  IFQ 15 cbr 532 [0 0 0 0] ------- [1:0 2:0 30 0] [15] 0 16777215
s 30.850166835 _1_ AGT  --- 80 cbr 512 [0 0 0 0] ------- [1:0 2:0 32 0] [80] 0 16777215
r 30.850166835 _1_ RTR  --- 80 cbr 512 [0 0 0 0] ------- [1:0 2:0 32 0] [80] 0 16777215
D 30.850166835 _1_ RTR  IFQ 16 cbr 532 [0 0 0 0] ------- [1:0 2:0 30 0] [16] 0 16777215
s 31.059391439 _1_ AGT  --- 81 cbr 512 [0 0 0 0] ------- [1:0 2:0 32 0] [81] 0 16777215
r 31.059391439 _1_ RTR  --- 81 cbr 512 [0 0 0 0] ------- [1:0 2:0 32 0] [81] 0 16777215
D 31.059391439 _1_ RTR  IFQ 17 cbr 532 [0 0 0 0] ------- [1:0 2:0 30 0] [17] 0 16777215
M 31.16439 2 (216.12, 190.86, 0.00), (659.61, 235.96), 4.23
s 31.234112208 _1_ AGT  --- 82 cbr 512 [0 0 0 0] ------- [1:0 2:0 32 0] [82] 0 16777215
r 31.234112208 _1_ RTR  --- 82 cbr 512 [0 0 0 0] ------- [1:0 2:0 32 0] [82] 0 16777215
D 31.234112208 _1_ RTR  IFQ 18 cbr 532 [0 0 0 0] ------- [1:0 2:0 30 0] [18] 0 16777215
s 31.334147116 _1_ AGT  --- 83 cbr 512 [0 0 0 0] ------- [1:0 2:0 32 0] [83] 0 16777215
r 31.334147116 _1_ RTR  --- 83 cbr 512 [0 0 0 0] ------- [1:0 2:0 32 0] [83] 0 16777215
D 31.334147116 _1_ RTR  IFQ 19 cbr 532 [0 0 0 0] ------- [1:0 2:0 30 0] [19] 0 16777215
s 31.450833094 _1_ AGT  --- 84 cbr 512 [0 0 0 0] ------- [1:0 2:0 32 0] [84] 0 16777215
r 31.450833094 _1_ RTR  --- 84 cbr 512 [0 0 0 0] ------- [1:0 2:0 32 0] [84] 0 16777215
D 31.450833094 _1_ RTR  IFQ 20 cbr 532 [0 0 0 0] ------- [1:0 2:0 30 0] [20] 0 16777215
s 31.617275980 _1_ AGT  --- 85 cbr 512 [0 0 0 0] ------- [1:0 2:0 32 0] [85] 0 16777215
r 31.617275980 _1_ RTR  --- 85 cbr 512 [0 0 0 0] ------- [1:0 2:0 32 0] [85] 0 16777215
D 31.617275980 _1_ RTR  IFQ 21 cbr 532 [0 0 0 0] ------- [1:0 2:0 30 0] [21] 0 16777215
s 31.856413941 _1_ AGT  --- 86 cbr 512 [0 0 0 0] ------- [1:0 2:0 32 0] [86] 0 16777215
r 31.856413941 _1_ RTR  --- 86 cbr 512 [0 0 0 0] ------- [1:0 2:0 32 0] [86] 0 16777215
D 31.856413941 _1_ RTR  IFQ 22 cbr 532 [0 0 0 0] ------- [1:0 2:0 30 0] [22] 0 16777215
s 32.138801781 _1_ AGT  --- 87 cbr 512 [0 0 0 0] ------- [1:0 2:0 32 0] [87] 0 16777215
r 32.138801781 _1_ RTR  --- 87 cbr 512 [0 0 0 0] ------- [1:0 2:0 32 0] [87] 0 16777215
D 32.138801781 _1_ RTR  IFQ 23 cbr 532 [0 0 0 0] ------- [1:0 2:0 30 0] [23] 0 16777215
s 32.245360252 _1_ AGT  --- 88 cbr 512 [0 0 0 0] ------- [1:0 2:0 32 0] [88] 0 16777215
r 32.245360252 _1_ RTR  --- 88 cbr 512 [0 0 0 0] ------- [1:0 2:0 32 0] [88] 0 16777215
D 32.245360252 _1_ RTR  IFQ 24 cbr 532 [0 0 0 0] ------- [1:0 2:0 30 0] [24] 0 16777215
s 32.418409717 _1_ AGT  --- 89 cbr 512 [0 0 0 0] ------- [1:0 2:0 32 0] [89] 0 16777215
r 32.418409717 _1_ RTR  --- 89 cbr 512 [0 0 0 0] ------- [1:0 2:0 32 0] [89] 0 16777215
D 32.418409717 _1_ RTR  IFQ 25 cbr 532 [0 0 0 0] ------- [1:0 2:0 30 0] [25] 0 16777215
s 32.579407512 _1_ AGT  --- 90 cbr 512 [0 0 0 0] ------- [1:0 2:0 32 0] [90] 0 16777215
r 32.579407512 _1_ RTR  --- 90 cbr 512 [0 0 0 0] ------- [1:0 2:0 32 0] [90] 0 16777215
D 32.579407512 _1_ RTR  IFQ 26 cbr 532 [0 0 0 0] ------- [1:0 2:0 30 0] [26] 0 16777215
s 32.680077565 _1_ AGT  --- 91 cbr 512 [0 0 0 0] ------- [1:0 2:0 32 0] [91] 0 16777215
r 32.680077565 _1_ RTR  --- 91 cbr 512 [0 0 0 0] ------- [1:0 2:0 32 0] [91] 0 16777215
D 32.680077565 _1_ RTR  IFQ 27 cbr 532 [0 0 0 0] ------- [1:0 2:0 30 0] [27] 0 16777215
s 32.844424528 _1_ AGT  --- 92 cbr 512 [0 0 0 0] ------- [1:0 2:0 32 0] [92] 0 16777215
r 32.844424528 _1_ RTR  --- 92 cbr 512 [0 0 0 0] ------- [1:0 2:0 32 0] [92] 0 16777215
D 32.844424528 _1_ RTR  IFQ 28 cbr 532 [0 0 0 0] ------- [1:0 2:0 30 0] [28] 0 16777215
s 33.120676024 _1_ AGT  --- 93 cbr 512 [0 0 0 0] ------- [1:0 2:0 32 0] [93] 0 16777215
r 33.120676024 _1_ RTR  --- 93 cbr 512 [0 0 0 0] ------- [1:0 2:0 32 0] [93] 0 16777215
D 33.120676024 _1_ RTR  IFQ 29 cbr 532 [0 0 0 0] ------- [1:0 2:0 30 0] [29] 0 16777215
D 33.120676024 _1_ RTR NRTE 30 cbr 532 [0 0 0 0] ------- [1:0 2:0 30 0] [30] 0 16777215
D 33.120676024 _1_ RTR NRTE 31 cbr 532 [0 0 0 0] ------- [1:0 2:0 30 0] [31] 0 16777215
D 33.120676024 _1_ RTR NRTE 32 cbr 532 [0 0 0 0] ------- [1:0 2:0 30 0] [32] 0 16777215
D 33.120676024 _1_ RTR NRTE 33 cbr 532 [0 0 0 0] ------- [1:0 2:0 30 0] [33] 0 16777215
D 33.120676024 _1_ RTR NRTE 34 cbr 532 [0 0 0 0] ------- [1:0 2:0 30 0] [34] 0 16777215
D 33.120676024 _1_ RTR NRTE 35 cbr 532 [0 0 0 0] ------- [1:0 2:0 30 0] [35] 0 16777215
D 33.120676024 _1_ RTR NRTE 36 cbr 532 [0 0 0 0] ------- [1:0 2:0 30 0] [36] 0 16777215
D 33.120676024 _1_ RTR NRTE 37 cbr 532 [0 0 0 0] ------- [1:0 2:0 30 0] [37] 0 16777215
D 33.120676024 _1_ RTR NRTE 38 cbr 532 [0 0 0 0] ------- [1:0 2:0 30 0] [38] 0 16777215
D 33.120676024 _1_ RTR NRTE 39 cbr 532 [0 0 0 0] ------- [1:0 2:0 30 0] [39] 0 16777215
D 33.120676024 _1_ RTR NRTE 40 cbr 532 [0 0 0 0] ------- [1:0 2:0 30 0] [40] 0 16777215
D 33.120676024 _1_ RTR NRTE 41 cbr 532 [0 0 0 0] ------- [1:0 2:0 30 0] [41] 0 16777215
D 33.120676024 _1_ RTR NRTE 42 cbr 532 [0 0 0 0] ------- [1:0 2:0 30 0] [42] 0 16777215
D 33.120676024 _1_ RTR NRTE 43 cbr 532 [0 0 0 0] ------- [1:0 2:0 30 0] [43] 0 16777215
D 33.120676024 _1_ RTR NRTE 44 cbr 532 [0 0 0 0] ------- [1:0 2:0 30 0] [44] 0 16777215
D 33.120676024 _1_ RTR NRTE 45 cbr 532 [0 0 0 0] ------- [1:0 2:0 30 0] [45] 0 16777215
D 33.120676024 _1_ RTR NRTE 46 cbr 532 [0 0 0 0] ------- [1:0 2:0 30 0] [46] 0 16777215
D 33.120676024 _1_ RTR NRTE 47 cbr 532 [0 0 0 0] ------- [1:0 2:0 30 0] [47] 0 16777215
D 33.120676024 _1_ RTR NRTE 48 cbr 532 [0 0 0 0] ------- [1:0 2:0 30 0] [48] 0 16777215
D 33.120676024 _1_ RTR NRTE 49 cbr 532 [0 0 0 0] ------- [1:0 2:0 30 0] [49] 0 16777215
D 33.120676024 _1_ RTR NRTE 50 cbr 532 [0 0 0 0] ------- [1:0 2:0 30 0] [50] 0 16777215
D 33.120676024 _1_ RTR NRTE 51 cbr 532 [0 0 0 0] ------- [1:0 2:0 30 0] [51] 0 16777215
D 33.120676024 _1_ RTR NRTE 52 cbr 532 [0 0 0 0] ------- [1:0 2:0 30 0] [52] 0 16777215
D 33.120676024 _1_ RTR NRTE 53 cbr 532 [0 0 0 0] ------- [1:0 2:0 30 0] [53] 0 16777215
D 33.120676024 _1_ RTR NRTE 54 cbr 532 [0 0 0 0] ------- [1:0 2:0 30 0] [54] 0 16777215
D 33.120676024 _1_ RTR NRTE 55 cbr 532 [0 0 0 0] ------- [1:0 2:0 30 0] [55] 0 16777215
D 33.120676024 _1_ RTR NRTE 56 cbr 532 [0 0 0 0] ------- [1:0 2:0 30 0] [56] 0 16777215
D 33.120676024 _1_ RTR NRTE 57 cbr 532 [0 0 0 0] ------- [1:0 2:0 30 0] [57] 0 16777215
D 33.120676024 _1_ RTR NRTE 58 cbr 532 [0 0 0 0] ------- [1:0 2:0 30 0] [58] 0 16777215
D 33.120676024 _1_ RTR NRTE 59 cbr 532 [0 0 0 0] ------- [1:0 2:0 30 0] [59] 0 16777215
D 33.120676024 _1_ RTR NRTE 60 cbr 532 [0 0 0 0] ------- [1:0 2:0 30 0] [60] 0 16777215
D 33.120676024 _1_ RTR NRTE 61 cbr 532 [0 0 0 0] ------- [1:0 2:0 30 0] [61] 0 16777215
D 33.120676024 _1_ RTR NRTE 62 cbr 532 [0 0 0 0] ------- [1:0 2:0 30 0] [62] 0 16777215
D 33.120676024 _1_ RTR NRTE 63 cbr 532 [0 0 0 0] ------- [1:0 2:0 30 0] [63] 0 16777215
D 33.120676024 _1_ RTR NRTE 64 cbr 532 [0 0 0 0] ------- [1:0 2:0 30 0] [64] 0 16777215
D 33.120676024 _1_ RTR NRTE 65 cbr 532 [0 0 0 0] ------- [1:0 2:0 30 0] [65] 0 16777215
D 33.120676024 _1_ RTR NRTE 66 cbr 532 [0 0 0 0] ------- [1:0 2:0 30 0] [66] 0 16777215
D 33.120676024 _1_ RTR NRTE 67 cbr 532 [0 0 0 0] ------- [1:0 2:0 30 0] [67] 0 16777215
D 33.120676024 _1_ RTR NRTE 68 cbr 532 [0 0 0 0] ------- [1:0 2:0 30 0] [68] 0 16777215
D 33.120676024 _1_ RTR NRTE 69 cbr 532 [0 0 0 0] ------- [1:0 2:0 30 0] [69] 0 16777215
D 33.120676024 _1_ RTR NRTE 70 cbr 532 [0 0 0 0] ------- [1:0 2:0 30 0] [70] 0 16777215
D 33.120676024 _1_ RTR NRTE 71 cbr 532 [0 0 0 0] ------- [1:0 2:0 30 0] [71] 0 16777215
D 33.120676024 _1_ RTR NRTE 72 cbr 532 [0 0 0 0] ------- [1:0 2:0 30 0] [72] 0 16777215
D 33.120676024 _1_ RTR NRTE 73 cbr 532 [0 0 0 0] ------- [1:0 2:0 30 0] [73] 0 16777215
D 33.120676024 _1_ RTR NRTE 74 cbr 532 [0 0 0 0] ------- [1:0 2:0 30 0] [74] 0 16777215
D 33.120676024 _1_ RTR NRTE 75 cbr 532 [0 0 0 0] ------- [1:0 2:0 30 0] [75] 0 16777215
D 33.120676024 _1_ RTR NRTE 76 cbr 532 [0 0 0 0] ------- [1:0 2:0 30 0] [76] 0 16777215
D 33.120676024 _1_ RTR NRTE 77 cbr 532 [0 0 0 0] ------- [1:0 2:0 30 0] [77] 0 16777215
D 33.120676024 _1_ RTR NRTE 78 cbr 532 [0 0 0 0] ------- [1:0 2:0 30 0] [78] 0 16777215
D 33.120676024 _1_ RTR NRTE 79 cbr 532 [0 0 0 0] ------- [1:0 2:0 30 0] [79] 0 16777215
D 33.120676024 _1_ RTR NRTE 80 cbr 532 [0 0 0 0] ------- [1:0 2:0 30 0] [80] 0 16777215
D 33.120676024 _1_ RTR NRTE 81 cbr 532 [0 0 0 0] ------- [1:0 2:0 30 0] [81] 0 16777215
D 33.120676024 _1_ RTR NRTE 82 cbr 532 [0 0 0 0] ------- [1:0 2:0 30 0] [82] 0 16777215
D 33.120676024 _1_ RTR NRTE 83 cbr 532 [0 0 0 0] ------- [1:0 2:0 30 0] [83] 0 16777215
D 33.120676024 _1_ RTR NRTE 84 cbr 532 [0 0 0 0] ------- [1:0 2:0 30 0] [84] 0 16777215
D 33.120676024 _1_ RTR NRTE 85 cbr 532 [0 0 0 0] ------- [1:0 2:0 30 0] [85] 0 16777215
D 33.120676024 _1_ RTR NRTE 86 cbr 532 [0 0 0 0] ------- [1:0 2:0 30 0] [86] 0 16777215
D 33.120676024 _1_ RTR NRTE 87 cbr 532 [0 0 0 0] ------- [1:0 2:0 30 0] [87] 0 16777215
D 33.120676024 _1_ RTR NRTE 88 cbr 532 [0 0 0 0] ------- [1:0 2:0 30 0] [88] 0 16777215
D 33.120676024 _1_ RTR NRTE 89 cbr 532 [0 0 0 0] ------- [1:0 2:0 30 0] [89] 0 16777215
D 33.120676024 _1_ RTR NRTE 90 cbr 532 [0 0 0 0] ------- [1:0 2:0 30 0] [90] 0 16777215
D 33.120676024 _1_ RTR NRTE 91 cbr 532 [0 0 0 0] ------- [1:0 2:0 30 0] [91] 0 16777215
D 33.120676024 _1_ RTR NRTE 92 cbr 532 [0 0 0 0] ------- [1:0 2:0 30 0] [92] 0 16777215
D 33.120676024 _1_ RTR NRTE 93 cbr 532 [0 0 0 0] ------- [1:0 2:0 30 0] [93] 0 16777215
s 33.396675150 _1_ AGT  --- 94 cbr 512 [0 0 0 0] ------- [1:0 2:0 32 0] [94] 0 16777215
r 33.396675150 _1_ RTR  --- 94 cbr 512 [0 0 0 0] ------- [1:0 2:0 32 0] [94] 0 16777215
s 33.657841517 _1_ AGT  --- 95 cbr 512 [0 0 0 0] ------- [1:0 2:0 32 0] [95] 0 16777215
r 33.657841517 _1_ RTR  --- 95 cbr 512 [0 0 0 0] ------- [1:0 2:0 32 0] [95] 0 16777215
s 33.792085320 _1_ AGT  --- 96 cbr 512 [0 0 0 0] ------- [1:0 2:0 32 0] [96] 0 16777215
r 33.792085320 _1_ RTR  --- 96 cbr 512 [0 0 0 0] ------- [1:0 2:0 32 0] [96] 0 16777215
s 33.898473605 _1_ AGT  --- 97 cbr 512 [0 0 0 0] ------- [1:0 2:0 32 0] [97] 0 16777215
r 33.898473605 _1_ RTR  --- 97 cbr 512 [0 0 0 0] ------- [1:0 2:0 32 0] [97] 0 16777215
s 34.149520699 _1_ AGT  --- 98 cbr 512 [0 0 0 0] ------- [1:0 2:0 32 0] [98] 0 16777215
r 34.149520699 _1_ RTR  --- 98 cbr 512 [0 0 0 0] ------- [1:0 2:0 32 0] [98] 0 16777215
s 34.372592024 _1_ AGT  --- 99 cbr 512 [0 0 0 0] ------- [1:0 2:0 32 0] [99] 0 16777215
r 34.372592024 _1_ RTR  --- 99 cbr 512 [0 0 0 0] ------- [1:0 2:0 32 0] [99] 0 16777215
s 34.630517698 _1_ AGT  --- 100 cbr 512 [0 0 0 0] ------- [1:0 2:0 32 0] [100] 0 16777215
r 34.630517698 _1_ RTR  --- 100 cbr 512 [0 0 0 0] ------- [1:0 2:0 32 0] [100] 0 16777215
s 34.834667074 _1_ AGT  --- 101 cbr 512 [0 0 0 0] ------- [1:0 2:0 32 0] [101] 0 16777215
r 34.834667074 _1_ RTR  --- 101 cbr 512 [0 0 0 0] ------- [1:0 2:0 32 0] [101] 0 16777215
s 35.024919364 _1_ AGT  --- 102 cbr 512 [0 0 0 0] ------- [1:0 2:0 32 0] [102] 0 16777215
r 35.024919364 _1_ RTR  --- 102 cbr 512 [0 0 0 0] ------- [1:0 2:0 32 0] [102] 0 16777215
s 35.166442390 _1_ AGT  --- 103 cbr 512 [0 0 0 0] ------- [1:0 2:0 32 0] [103] 0 16777215
r 35.166442390 _1_ RTR  --- 103 cbr 512 [0 0 0 0] ------- [1:0 2:0 32 0] [103] 0 16777215
s 35.269641825 _1_ AGT  --- 104 cbr 512 [0 0 0 0] ------- [1:0 2:0 32 0] [104] 0 16777215
r 35.269641825 _1_ RTR  --- 104 cbr 512 [0 0 0 0] ------- [1:0 2:0 32 0] [104] 0 16777215
s 35.457624707 _1_ AGT  --- 105 cbr 512 [0 0 0 0] ------- [1:0 2:0 32 0] [105] 0 16777215
r 35.457624707 _1_ RTR  --- 105 cbr 512 [0 0 0 0] ------- [1:0 2:0 32 0] [105] 0 16777215
s 35.645069142 _1_ AGT  --- 106 cbr 512 [0 0 0 0] ------- [1:0 2:0 32 0] [106] 0 16777215
r 35.645069142 _1_ RTR  --- 106 cbr 512 [0 0 0 0] ------- [1:0 2:0 32 0] [106] 0 16777215
s 35.811311545 _1_ AGT  --- 107 cbr 512 [0 0 0 0] ------- [1:0 2:0 32 0] [107] 0 16777215
r 35.811311545 _1_ RTR  --- 107 cbr 512 [0 0 0 0] ------- [1:0 2:0 32 0] [107] 0 16777215
s 35.935146969 _1_ AGT  --- 108 cbr 512 [0 0 0 0] ------- [1:0 2:0 32 0] [108] 0 16777215
r 35.935146969 _1_ RTR  --- 108 cbr 512 [0 0 0 0] ------- [1:0 2:0 32 0] [108] 0 16777215
s 36.215029896 _1_ AGT  --- 109 cbr 512 [0 0 0 0] ------- [1:0 2:0 32 0] [109] 0 16777215
r 36.215029896 _1_ RTR  --- 109 cbr 512 [0 0 0 0] ------- [1:0 2:0 32 0] [109] 0 16777215
s 36.357860302 _1_ AGT  --- 110 cbr 512 [0 0 0 0] ------- [1:0 2:0 32 0] [110] 0 16777215
r 36.357860302 _1_ RTR  --- 110 cbr 512 [0 0 0 0] ------- [1:0 2:0 32 0] [110] 0 16777215
s 36.543941271 _1_ AGT  --- 111 cbr 512 [0 0 0 0] ------- [1:0 2:0 32 0] [111] 0 2
r 36.543941271 _1_ RTR  --- 111 cbr 512 [0 0 0 0] ------- [1:0 2:0 32 0] [111] 0 2
s 36.728527749 _1_ AGT  --- 112 cbr 512 [0 0 0 0] ------- [1:0 2:0 32 0] [112] 0 2
r 36.728527749 _1_ RTR  --- 112 cbr 512 [0 0 0 0] ------- [1:0 2:0 32 0] [112] 0 2
s 36.910023566 _1_ AGT  --- 113 cbr 512 [0 0 0 0] ------- [1:0 2:0 32 0] [113] 0 2