n -t * -s 0  -x 0 -y 0 -Z 0 -z 35  -v circle -c black
n -t * -s 1  -x 0 -y 0 -Z 0 -z 35  -v circle -c black
n -t * -s 2  -x 0 -y 0 -Z 0 -z 35  -v circle -c black
n -t * -s 3  -x 0 -y 0 -Z 0 -z 35  -v circle -c black
n -t * -s 4  -x 0 -y 0 -Z 0 -z 35  -v circle -c black
n -t * -s 5  -x 0 -y 0 -Z 0 -z 35  -v circle -c black
n -t * -s 6  -x 0 -y 0 -Z 0 -z 35  -v circle -c black
n -t * -s 7  -x 0 -y 0 -Z 0 -z 35  -v circle -c black
n -t * -s 8  -x 0 -y 0 -Z 0 -z 35  -v circle -c black
n -t * -s 9  -x 0 -y 0 -Z 0 -z 35  -v circle -c black
V -t * -v 1.0a5 -a 0
W -t * -x 800 -y 800
A -t * -n 1 -p 0 -o 0x7fffffff -c 30 -a 1
A -t * -h 1 -m 1073741823 -s 0
n -t 0.000000 -s 0 -x 374.476556 -y 652.267758 -U -1.599509 -V -2.745926 -T 105.663266
n -t 0.000000 -s 1 -x 735.078640 -y 121.812575 -U -1.575596 -V -0.202522 -T 387.468017
n -t 0.000000 -s 2 -x 311.354944 -y 399.507792 -U -3.640032 -V -7.974350 -T 26.164387
n -t 0.000000 -s 3 -x 610.921542 -y 639.555368 -U -1.015897 -V 0.003311 -T 70.676983
n -t 0.000000 -s 4 -x 376.235213 -y 88.967145 -U 0.253317 -V 1.356562 -T 248.090524
n -t 0.000000 -s 5 -x 523.156709 -y 303.214853 -U -2.935148 -V 3.747993 -T 88.736648
n -t 0.000000 -s 6 -x 238.428931 -y 793.100026 -U 1.101659 -V -0.709401 -T 196.013444
n -t 0.000000 -s 7 -x 316.474972 -y 193.575871 -U -0.170332 -V 2.275999 -T 231.609365
n -t 0.000000 -s 8 -x 412.268167 -y 426.392213 -U 2.471413 -V 1.752344 -T 130.637228
n -t 0.000000 -s 9 -x 278.650343 -y 217.823804 -U 6.666931 -V -0.989163 -T 16.415515
n -t 0 -s 1 -S COLOR -c blue -o blue -i blue -I blue
n -t 0 -s 2 -S COLOR -c orange -o blue -i orange -I blue
+ -t 15.000000000 -s 1 -d -1 -p cbr -e 512 -c 2 -a 0 -i 0 -k AGT 
- -t 15.000000000 -s 1 -d -1 -p cbr -e 512 -c 2 -a 0 -i 0 -k AGT
h -t 15.000000000 -s 1 -d -1 -p cbr -e 512 -c 2 -a 0 -i 0 -k AGT
+ -t 15.000000000 -s 1 -d -1 -p AODV -e 48 -c 2 -a 0 -i 0 -k RTR 
- -t 15.000000000 -s 1 -d -1 -p AODV -e 48 -c 2 -a 0 -i 0 -k RTR
h -t 15.000000000 -s 1 -d -1 -p AODV -e 48 -c 2 -a 0 -i 0 -k RTR
+ -t 15.000115000 -s 1 -d -1 -p AODV -e 106 -c 2 -a 0 -i 0 -k MAC 
- -t 15.000115000 -s 1 -d -1 -p AODV -e 106 -c 2 -a 0 -i 0 -k MAC
h -t 15.000115000 -s 1 -d -1 -p AODV -e 106 -c 2 -a 0 -i 0 -k MAC
+ -t 15.100067915 -s 1 -d -1 -p cbr -e 512 -c 2 -a 0 -i 1 -k AGT 
- -t 15.100067915 -s 1 -d -1 -p cbr -e 512 -c 2 -a 0 -i 1 -k AGT
h -t 15.100067915 -s 1 -d -1 -p cbr -e 512 -c 2 -a 0 -i 1 -k AGT
+ -t 15.217692450 -s 1 -d -1 -p cbr -e 512 -c 2 -a 0 -i 2 -k AGT 
- -t 15.217692450 -s 1 -d -1 -p cbr -e 512 -c 2 -a 0 -i 2 -k AGT
h -t 15.217692450 -s 1 -d -1 -p cbr -e 512 -c 2 -a 0 -i 2 -k AGT
+ -t 15.405927126 -s 1 -d -1 -p cbr -e 512 -c 2 -a 0 -i 3 -k AGT 
- -t 15.405927126 -s 1 -d -1 -p cbr -e 512 -c 2 -a 0 -i 3 -k AGT
h -t 15.405927126 -s 1 -d -1 -p cbr -e 512 -c 2 -a 0 -i 3 -k AGT
+ -t 15.665758217 -s 1 -d -1 -p cbr -e 512 -c 2 -a 0 -i 4 -k AGT 
- -t 15.665758217 -s 1 -d -1 -p cbr -e 512 -c 2 -a 0 -i 4 -k AGT
h -t 15.665758217 -s 1 -d -1 -p cbr -e 512 -c 2 -a 0 -i 4 -k AGT
+ -t 15.828350571 -s 1 -d -1 -p cbr -e 512 -c 2 -a 0 -i 5 -k AGT 
- -t 15.828350571 -s 1 -d -1 -p cbr -e 512 -c 2 -a 0 -i 5 -k AGT
h -t 15.828350571 -s 1 -d -1 -p cbr -e 512 -c 2 -a 0 -i 5 -k AGT
+ -t 16.091645781 -s 1 -d -1 -p cbr -e 512 -c 2 -a 0 -i 6 -k AGT 
- -t 16.091645781 -s 1 -d -1 -p cbr -e 512 -c 2 -a 0 -i 6 -k AGT
h -t 16.091645781 -s 1 -d -1 -p cbr -e 512 -c 2 -a 0 -i 6 -k AGT
+ -t 16.238566132 -s 1 -d -1 -p cbr -e 512 -c 2 -a 0 -i 7 -k AGT 
- -t 16.238566132 -s 1 -d -1 -p cbr -e 512 -c 2 -a 0 -i 7 -k AGT
h -t 16.238566132 -s 1 -d -1 -p cbr -e 512 -c 2 -a 0 -i 7 -k AGT
n -t 16.415515 -s 9 -x 388.091446 -y 201.586180 -U 0.000000 -V 0.000000 -T 0.000000
+ -t 16.466339160 -s 1 -d -1 -p cbr -e 512 -c 2 -a 0 -i 8 -k AGT 
- -t 16.466339160 -s 1 -d -1 -p cbr -e 512 -c 2 -a 0 -i 8 -k AGT
h -t 16.466339160 -s 1 -d -1 -p cbr -e 512 -c 2 -a 0 -i 8 -k AGT
+ -t 16.628154972 -s 1 -d -1 -p cbr -e 512 -c 2 -a 0 -i 9 -k AGT 
- -t 16.628154972 -s 1 -d -1 -p cbr -e 512 -c 2 -a 0 -i 9 -k AGT
h -t 16.628154972 -s 1 -d -1 -p cbr -e 512 -c 2 -a 0 -i 9 -k AGT
+ -t 16.895419679 -s 1 -d -1 -p cbr -e 512 -c 2 -a 0 -i 10 -k AGT 
- -t 16.895419679 -s 1 -d -1 -p cbr -e 512 -c 2 -a 0 -i 10 -k AGT
h -t 16.895419679 -s 1 -d -1 -p cbr -e 512 -c 2 -a 0 -i 10 -k AGT
+ -t 16.895419679 -s 1 -d -1 -p AODV -e 48 -c 2 -a 0 -i 0 -k RTR 
- -t 16.895419679 -s 1 -d -1 -p AODV -e 48 -c 2 -a 0 -i 0 -k RTR
h -t 16.895419679 -s 1 -d -1 -p AODV -e 48 -c 2 -a 0 -i 0 -k RTR
+ -t 16.896034679 -s 1 -d -1 -p AODV -e 106 -c 2 -a 0 -i 0 -k MAC 
- -t 16.896034679 -s 1 -d -1 -p AODV -e 106 -c 2 -a 0 -i 0 -k MAC
h -t 16.896034679 -s 1 -d -1 -p AODV -e 106 -c 2 -a 0 -i 0 -k MAC
+ -t 17.028248761 -s 1 -d -1 -p cbr -e 512 -c 2 -a 0 -i 11 -k AGT 
- -t 17.028248761 -s 1 -d -1 -p cbr -e 512 -c 2 -a 0 -i 11 -k AGT
h -t 17.028248761 -s 1 -d -1 -p cbr -e 512 -c 2 -a 0 -i 11 -k AGT
+ -t 17.151010410 -s 1 -d -1 -p cbr -e 512 -c 2 -a 0 -i 12 -k AGT 
- -t 17.151010410 -s 1 -d -1 -p cbr -e 512 -c 2 -a 0 -i 12 -k AGT
h -t 17.151010410 -s 1 -d -1 -p cbr -e 512 -c 2 -a 0 -i 12 -k AGT
+ -t 17.422955950 -s 1 -d -1 -p cbr -e 512 -c 2 -a 0 -i 13 -k AGT 
- -t 17.422955950 -s 1 -d -1 -p cbr -e 512 -c 2 -a 0 -i 13 -k AGT
h -t 17.422955950 -s 1 -d -1 -p cbr -e 512 -c 2 -a 0 -i 13 -k AGT
+ -t 17.607687297 -s 1 -d -1 -p cbr -e 512 -c 2 -a 0 -i 14 -k AGT 
- -t 17.607687297 -s 1 -d -1 -p cbr -e 512 -c 2 -a 0 -i 14 -k AGT
h -t 17.607687297 -s 1 -d -1 -p cbr -e 512 -c 2 -a 0 -i 14 -k AGT
+ -t 17.742648348 -s 1 -d -1 -p cbr -e 512 -c 2 -a 0 -i 15 -k AGT 
- -t 17.742648348 -s 1 -d -1 -p cbr -e 512 -c 2 -a 0 -i 15 -k AGT
h -t 17.742648348 -s 1 -d -1 -p cbr -e 512 -c 2 -a 0 -i 15 -k AGT
+ -t 17.861476119 -s 1 -d -1 -p cbr -e 512 -c 2 -a 0 -i 16 -k AGT 
- -t 17.861476119 -s 1 -d -1 -p cbr -e 512 -c 2 -a 0 -i 16 -k AGT
h -t 17.861476119 -s 1 -d -1 -p cbr -e 512 -c 2 -a 0 -i 16 -k AGT
+ -t 18.122881830 -s 1 -d -1 -p cbr -e 512 -c 2 -a 0 -i 17 -k AGT 
- -t 18.122881830 -s 1 -d -1 -p cbr -e 512 -c 2 -a 0 -i 17 -k AGT
h -t 18.122881830 -s 1 -d -1 -p cbr -e 512 -c 2 -a 0 -i 17 -k AGT
+ -t 18.292630035 -s 1 -d -1 -p cbr -e 512 -c 2 -a 0 -i 18 -k AGT 
- -t 18.292630035 -s 1 -d -1 -p cbr -e 512 -c 2 -a 0 -i 18 -k AGT
h -t 18.292630035 -s 1 -d -1 -p cbr -e 512 -c 2 -a 0 -i 18 -k AGT
+ -t 18.444247624 -s 1 -d -1 -p cbr -e 512 -c 2 -a 0 -i 19 -k AGT 
- -t 18.444247624 -s 1 -d -1 -p cbr -e 512 -c 2 -a 0 -i 19 -k AGT
h -t 18.444247624 -s 1 -d -1 -p cbr -e 512 -c 2 -a 0 -i 19 -k AGT
+ -t 18.625984760 -s 1 -d -1 -p cbr -e 512 -c 2 -a 0 -i 20 -k AGT 
- -t 18.625984760 -s 1 -d -1 -p cbr -e 512 -c 2 -a 0 -i 20 -k AGT
h -t 18.625984760 -s 1 -d -1 -p cbr -e 512 -c 2 -a 0 -i 20 -k AGT
+ -t 18.829714519 -s 1 -d -1 -p cbr -e 512 -c 2 -a 0 -i 21 -k AGT 
- -t 18.829714519 -s 1 -d -1 -p cbr -e 512 -c 2 -a 0 -i 21 -k AGT
h -t 18.829714519 -s 1 -d -1 -p cbr -e 512 -c 2 -a 0 -i 21 -k AGT
+ -t 19.022937706 -s 1 -d -1 -p cbr -e 512 -c 2 -a 0 -i 22 -k AGT 
- -t 19.022937706 -s 1 -d -1 -p cbr -e 512 -c 2 -a 0 -i 22 -k AGT
h -t 19.022937706 -s 1 -d -1 -p cbr -e 512 -c 2 -a 0 -i 22 -k AGT
+ -t 19.261399072 -s 1 -d -1 -p cbr -e 512 -c 2 -a 0 -i 23 -k AGT 
- -t 19.261399072 -s 1 -d -1 -p cbr -e 512 -c 2 -a 0 -i 23 -k AGT
h -t 19.261399072 -s 1 -d -1 -p cbr -e 512 -c 2 -a 0 -i 23 -k AGT
+ -t 19.533812529 -s 1 -d -1 -p cbr -e 512 -c 2 -a 0 -i 24 -k AGT 
- -t 19.533812529 -s 1 -d -1 -p cbr -e 512 -c 2 -a 0 -i 24 -k AGT
h -t 19.533812529 -s 1 -d -1 -p cbr -e 512 -c 2 -a 0 -i 24 -k AGT
+ -t 19.801777569 -s 1 -d -1 -p cbr -e 512 -c 2 -a 0 -i 25 -k AGT 
- -t 19.801777569 -s 1 -d -1 -p cbr -e 512 -c 2 -a 0 -i 25 -k AGT
h -t 19.801777569 -s 1 -d -1 -p cbr -e 512 -c 2 -a 0 -i 25 -k AGT
+ -t 19.945209461 -s 1 -d -1 -p cbr -e 512 -c 2 -a 0 -i 26 -k AGT 
- -t 19.945209461 -s 1 -d -1 -p cbr -e 512 -c 2 -a 0 -i 26 -k AGT
h -t 19.945209461 -s 1 -d -1 -p cbr -e 512 -c 2 -a 0 -i 26 -k AGT
+ -t 20.093454587 -s 1 -d -1 -p cbr -e 512 -c 2 -a 0 -i 27 -k AGT 
- -t 20.093454587 -s 1 -d -1 -p cbr -e 512 -c 2 -a 0 -i 27 -k AGT
h -t 20.093454587 -s 1 -d -1 -p cbr -e 512 -c 2 -a 0 -i 27 -k AGT
+ -t 20.363675897 -s 1 -d -1 -p cbr -e 512 -c 2 -a 0 -i 28 -k AGT 
- -t 20.363675897 -s 1 -d -1 -p cbr -e 512 -c 2 -a 0 -i 28 -k AGT
h -t 20.363675897 -s 1 -d -1 -p cbr -e 512 -c 2 -a 0 -i 28 -k AGT
+ -t 20.500000000 -s 1 -d -1 -p AODV -e 48 -c 2 -a 0 -i 0 -k RTR 
- -t 20.500000000 -s 1 -d -1 -p AODV -e 48 -c 2 -a 0 -i 0 -k RTR
h -t 20.500000000 -s 1 -d -1 -p AODV -e 48 -c 2 -a 0 -i 0 -k RTR
+ -t 20.500435000 -s 1 -d -1 -p AODV -e 106 -c 2 -a 0 -i 0 -k MAC 
- -t 20.500435000 -s 1 -d -1 -p AODV -e 106 -c 2 -a 0 -i 0 -k MAC
h -t 20.500435000 -s 1 -d -1 -p AODV -e 106 -c 2 -a 0 -i 0 -k MAC
+ -t 20.599145686 -s 1 -d -1 -p cbr -e 512 -c 2 -a 0 -i 29 -k AGT 
- -t 20.599145686 -s 1 -d -1 -p cbr -e 512 -c 2 -a 0 -i 29 -k AGT
h -t 20.599145686 -s 1 -d -1 -p cbr -e 512 -c 2 -a 0 -i 29 -k AGT
+ -t 20.780249501 -s 1 -d -1 -p cbr -e 512 -c 2 -a 0 -i 30 -k AGT 
- -t 20.780249501 -s 1 -d -1 -p cbr -e 512 -c 2 -a 0 -i 30 -k AGT
h -t 20.780249501 -s 1 -d -1 -p cbr -e 512 -c 2 -a 0 -i 30 -k AGT
+ -t 20.902089195 -s 1 -d -1 -p cbr -e 512 -c 2 -a 0 -i 31 -k AGT 
- -t 20.902089195 -s 1 -d -1 -p cbr -e 512 -c 2 -a 0 -i 31 -k AGT
h -t 20.902089195 -s 1 -d -1 -p cbr -e 512 -c 2 -a 0 -i 31 -k AGT
+ -t 21.082930701 -s 1 -d -1 -p cbr -e 512 -c 2 -a 0 -i 32 -k AGT 
- -t 21.082930701 -s 1 -d -1 -p cbr -e 512 -c 2 -a 0 -i 32 -k AGT
h -t 21.082930701 -s 1 -d -1 -p cbr -e 512 -c 2 -a 0 -i 32 -k AGT
+ -t 21.220403749 -s 1 -d -1 -p cbr -e 512 -c 2 -a 0 -i 33 -k AGT 
- -t 21.220403749 -s 1 -d -1 -p cbr -e 512 -c 2 -a 0 -i 33 -k AGT
h -t 21.220403749 -s 1 -d -1 -p cbr -e 512 -c 2 -a 0 -i 33 -k AGT
n -t 21.415515 -s 9 -x 388.091446 -y 201.586180 -U 4.349948 -V 1.563011 -T 67.130938
+ -t 21.497892459 -s 1 -d -1 -p cbr -e 512 -c 2 -a 0 -i 34 -k AGT 
- -t 21.497892459 -s 1 -d -1 -p cbr -e 512 -c 2 -a 0 -i 34 -k AGT
h -t 21.497892459 -s 1 -d -1 -p cbr -e 512 -c 2 -a 0 -i 34 -k AGT
+ -t 21.787145449 -s 1 -d -1 -p cbr -e 512 -c 2 -a 0 -i 35 -k AGT 
- -t 21.787145449 -s 1 -d -1 -p cbr -e 512 -c 2 -a 0 -i 35 -k AGT
h -t 21.787145449 -s 1 -d -1 -p cbr -e 512 -c 2 -a 0 -i 35 -k AGT
+ -t 22.065415014 -s 1 -d -1 -p cbr -e 512 -c 2 -a 0 -i 36 -k AGT 
- -t 22.065415014 -s 1 -d -1 -p cbr -e 512 -c 2 -a 0 -i 36 -k AGT
h -t 22.065415014 -s 1 -d -1 -p cbr -e 512 -c 2 -a 0 -i 36 -k AGT
+ -t 22.187821277 -s 1 -d -1 -p cbr -e 512 -c 2 -a 0 -i 37 -k AGT 
- -t 22.187821277 -s 1 -d -1 -p cbr -e 512 -c 2 -a 0 -i 37 -k AGT
h -t 22.187821277 -s 1 -d -1 -p cbr -e 512 -c 2 -a 0 -i 37 -k AGT
+ -t 22.299501802 -s 1 -d -1 -p cbr -e 512 -c 2 -a 0 -i 38 -k AGT 
- -t 22.299501802 -s 1 -d -1 -p cbr -e 512 -c 2 -a 0 -i 38 -k AGT
h -t 22.299501802 -s 1 -d -1 -p cbr -e 512 -c 2 -a 0 -i 38 -k AGT
+ -t 22.401663470 -s 1 -d -1 -p cbr -e 512 -c 2 -a 0 -i 39 -k AGT 
- -t 22.401663470 -s 1 -d -1 -p cbr -e 512 -c 2 -a 0 -i 39 -k AGT
h -t 22.401663470 -s 1 -d -1 -p cbr -e 512 -c 2 -a 0 -i 39 -k AGT
+ -t 22.620668947 -s 1 -d -1 -p cbr -e 512 -c 2 -a 0 -i 40 -k AGT 
- -t 22.620668947 -s 1 -d -1 -p cbr -e 512 -c 2 -a 0 -i 40 -k AGT
h -t 22.620668947 -s 1 -d -1 -p cbr -e 512 -c 2 -a 0 -i 40 -k AGT
+ -t 22.787801499 -s 1 -d -1 -p cbr -e 512 -c 2 -a 0 -i 41 -k AGT 
- -t 22.787801499 -s 1 -d -1 -p cbr -e 512 -c 2 -a 0 -i 41 -k AGT
h -t 22.787801499 -s 1 -d -1 -p cbr -e 512 -c 2 -a 0 -i 41 -k AGT
+ -t 22.912422198 -s 1 -d -1 -p cbr -e 512 -c 2 -a 0 -i 42 -k AGT 
- -t 22.912422198 -s 1 -d -1 -p cbr -e 512 -c 2 -a 0 -i 42 -k AGT
h -t 22.912422198 -s 1 -d -1 -p cbr -e 512 -c 2 -a 0 -i 42 -k AGT
+ -t 23.146146977 -s 1 -d -1 -p cbr -e 512 -c 2 -a 0 -i 43 -k AGT 
- -t 23.146146977 -s 1 -d -1 -p cbr -e 512 -c 2 -a 0 -i 43 -k AGT
h -t 23.146146977 -s 1 -d -1 -p cbr -e 512 -c 2 -a 0 -i 43 -k AGT
+ -t 23.297545725 -s 1 -d -1 -p cbr -e 512 -c 2 -a 0 -i 44 -k AGT 
- -t 23.297545725 -s 1 -d -1 -p cbr -e 512 -c 2 -a 0 -i 44 -k AGT
h -t 23.297545725 -s 1 -d -1 -p cbr -e 512 -c 2 -a 0 -i 44 -k AGT
+ -t 23.537280370 -s 1 -d -1 -p cbr -e 512 -c 2 -a 0 -i 45 -k AGT 
- -t 23.537280370 -s 1 -d -1 -p cbr -e 512 -c 2 -a 0 -i 45 -k AGT
h -t 23.537280370 -s 1 -d -1 -p cbr -e 512 -c 2 -a 0 -i 45 -k AGT
+ -t 23.746244763 -s 1 -d -1 -p cbr -e 512 -c 2 -a 0 -i 46 -k AGT 
- -t 23.746244763 -s 1 -d -1 -p cbr -e 512 -c 2 -a 0 -i 46 -k AGT
h -t 23.746244763 -s 1 -d -1 -p cbr -e 512 -c 2 -a 0 -i 46 -k AGT
+ -t 24.021575898 -s 1 -d -1 -p cbr -e 512 -c 2 -a 0 -i 47 -k AGT 
- -t 24.021575898 -s 1 -d -1 -p cbr -e 512 -c 2 -a 0 -i 47 -k AGT
h -t 24.021575898 -s 1 -d -1 -p cbr -e 512 -c 2 -a 0 -i 47 -k AGT
+ -t 24.173940728 -s 1 -d -1 -p cbr -e 512 -c 2 -a 0 -i 48 -k AGT 
- -t 24.173940728 -s 1 -d -1 -p cbr -e 512 -c 2 -a 0 -i 48 -k AGT
h -t 24.173940728 -s 1 -d -1 -p cbr -e 512 -c 2 -a 0 -i 48 -k AGT
+ -t 24.384908662 -s 1 -d -1 -p cbr -e 512 -c 2 -a 0 -i 49 -k AGT 
- -t 24.384908662 -s 1 -d -1 -p cbr -e 512 -c 2 -a 0 -i 49 -k AGT
h -t 24.384908662 -s 1 -d -1 -p cbr -e 512 -c 2 -a 0 -i 49 -k AGT
+ -t 24.570046118 -s 1 -d -1 -p cbr -e 512 -c 2 -a 0 -i 50 -k AGT 
- -t 24.570046118 -s 1 -d -1 -p cbr -e 512 -c 2 -a 0 -i 50 -k AGT
h -t 24.570046118 -s 1 -d -1 -p cbr -e 512 -c 2 -a 0 -i 50 -k AGT
+ -t 24.675557612 -s 1 -d -1 -p cbr -e 512 -c 2 -a 0 -i 51 -k AGT 
- -t 24.675557612 -s 1 -d -1 -p cbr -e 512 -c 2 -a 0 -i 51 -k AGT
h -t 24.675557612 -s 1 -d -1 -p cbr -e 512 -c 2 -a 0 -i 51 -k AGT
+ -t 24.841021012 -s 1 -d -1 -p cbr -e 512 -c 2 -a 0 -i 52 -k AGT 
- -t 24.841021012 -s 1 -d -1 -p cbr -e 512 -c 2 -a 0 -i 52 -k AGT
h -t 24.841021012 -s 1 -d -1 -p cbr -e 512 -c 2 -a 0 -i 52 -k AGT
+ -t 24.978263863 -s 1 -d -1 -p cbr -e 512 -c 2 -a 0 -i 53 -k AGT 
- -t 24.978263863 -s 1 -d -1 -p cbr -e 512 -c 2 -a 0 -i 53 -k AGT
h -t 24.978263863 -s 1 -d -1 -p cbr -e 512 -c 2 -a 0 -i 53 -k AGT
+ -t 25.235261284 -s 1 -d -1 -p cbr -e 512 -c 2 -a 0 -i 54 -k AGT 
- -t 25.235261284 -s 1 -d -1 -p cbr -e 512 -c 2 -a 0 -i 54 -k AGT
h -t 25.235261284 -s 1 -d -1 -p cbr -e 512 -c 2 -a 0 -i 54 -k AGT
+ -t 25.524624521 -s 1 -d -1 -p cbr -e 512 -c 2 -a 0 -i 55 -k AGT 
- -t 25.524624521 -s 1 -d -1 -p cbr -e 512 -c 2 -a 0 -i 55 -k AGT
h -t 25.524624521 -s 1 -d -1 -p cbr -e 512 -c 2 -a 0 -i 55 -k AGT
+ -t 25.779163669 -s 1 -d -1 -p cbr -e 512 -c 2 -a 0 -i 56 -k AGT 
- -t 25.779163669 -s 1 -d -1 -p cbr -e 512 -c 2 -a 0 -i 56 -k AGT
h -t 25.779163669 -s 1 -d -1 -p cbr -e 512 -c 2 -a 0 -i 56 -k AGT
+ -t 25.920510474 -s 1 -d -1 -p cbr -e 512 -c 2 -a 0 -i 57 -k AGT 
- -t 25.920510474 -s 1 -d -1 -p cbr -e 512 -c 2 -a 0 -i 57 -k AGT
h -t 25.920510474 -s 1 -d -1 -p cbr -e 512 -c 2 -a 0 -i 57 -k AGT
+ -t 25.920510474 -s 1 -d -1 -p AODV -e 48 -c 2 -a 0 -i 0 -k RTR 
- -t 25.920510474 -s 1 -d -1 -p AODV -e 48 -c 2 -a 0 -i 0 -k RTR
h -t 25.920510474 -s 1 -d -1 -p AODV -e 48 -c 2 -a 0 -i 0 -k RTR
+ -t 25.920825474 -s 1 -d -1 -p AODV -e 106 -c 2 -a 0 -i 0 -k MAC 
- -t 25.920825474 -s 1 -d -1 -p AODV -e 106 -c 2 -a 0 -i 0 -k MAC
h -t 25.920825474 -s 1 -d -1 -p AODV -e 106 -c 2 -a 0 -i 0 -k MAC
+ -t 26.159497927 -s 1 -d -1 -p cbr -e 512 -c 2 -a 0 -i 58 -k AGT 
- -t 26.159497927 -s 1 -d -1 -p cbr -e 512 -c 2 -a 0 -i 58 -k AGT
h -t 26.159497927 -s 1 -d -1 -p cbr -e 512 -c 2 -a 0 -i 58 -k AGT
n -t 26.164387 -s 2 -x 216.115734 -y 190.863803 -U -0.000000 -V -0.000000 -T 0.000000
+ -t 26.277769310 -s 1 -d -1 -p cbr -e 512 -c 2 -a 0 -i 59 -k AGT 
- -t 26.277769310 -s 1 -d -1 -p cbr -e 512 -c 2 -a 0 -i 59 -k AGT
h -t 26.277769310 -s 1 -d -1 -p cbr -e 512 -c 2 -a 0 -i 59 -k AGT
+ -t 26.476113651 -s 1 -d -1 -p cbr -e 512 -c 2 -a 0 -i 60 -k AGT 
- -t 26.476113651 -s 1 -d -1 -p cbr -e 512 -c 2 -a 0 -i 60 -k AGT
h -t 26.476113651 -s 1 -d -1 -p cbr -e 512 -c 2 -a 0 -i 60 -k AGT
+ -t 26.586140332 -s 1 -d -1 -p cbr -e 512 -c 2 -a 0 -i 61 -k AGT 
- -t 26.586140332 -s 1 -d -1 -p cbr -e 512 -c 2 -a 0 -i 61 -k AGT
h -t 26.586140332 -s 1 -d -1 -p cbr -e 512 -c 2 -a 0 -i 61 -k AGT
+ -t 26.859161428 -s 1 -d -1 -p cbr -e 512 -c 2 -a 0 -i 62 -k AGT 
- -t 26.859161428 -s 1 -d -1 -p cbr -e 512 -c 2 -a 0 -i 62 -k AGT
h -t 26.859161428 -s 1 -d -1 -p cbr -e 512 -c 2 -a 0 -i 62 -k AGT
+ -t 27.065741138 -s 1 -d -1 -p cbr -e 512 -c 2 -a 0 -i 63 -k AGT 
- -t 27.065741138 -s 1 -d -1 -p cbr -e 512 -c 2 -a 0 -i 63 -k AGT
h -t 27.065741138 -s 1 -d -1 -p cbr -e 512 -c 2 -a 0 -i 63 -k AGT
+ -t 27.312759364 -s 1 -d -1 -p cbr -e 512 -c 2 -a 0 -i 64 -k AGT 
- -t 27.312759364 -s 1 -d -1 -p cbr -e 512 -c 2 -a 0 -i 64 -k AGT
h -t 27.312759364 -s 1 -d -1 -p cbr -e 512 -c 2 -a 0 -i 64 -k AGT
d -t 27.312759364 -s 1 -d -1 -p cbr -e 532 -c 2 -a 0 -i 0 -k RTR
+ -t 27.497003374 -s 1 -d -1 -p cbr -e 512 -c 2 -a 0 -i 65 -k AGT 
- -t 27.497003374 -s 1 -d -1 -p cbr -e 512 -c 2 -a 0 -i 65 -k AGT
h -t 27.497003374 -s 1 -d -1 -p cbr -e 512 -c 2 -a 0 -i 65 -k AGT
d -t 27.497003374 -s 1 -d -1 -p cbr -e 532 -c 2 -a 0 -i 1 -k RTR
+ -t 27.614643403 -s 1 -d -1 -p cbr -e 512 -c 2 -a 0 -i 66 -k AGT 
- -t 27.614643403 -s 1 -d -1 -p cbr -e 512 -c 2 -a 0 -i 66 -k AGT
h -t 27.614643403 -s 1 -d -1 -p cbr -e 512 -c 2 -a 0 -i 66 -k AGT
d -t 27.614643403 -s 1 -d -1 -p cbr -e 532 -c 2 -a 0 -i 2 -k RTR
+ -t 27.877523434 -s 1 -d -1 -p cbr -e 512 -c 2 -a 0 -i 67 -k AGT 
- -t 27.877523434 -s 1 -d -1 -p cbr -e 512 -c 2 -a 0 -i 67 -k AGT
h -t 27.877523434 -s 1 -d -1 -p cbr -e 512 -c 2 -a 0 -i 67 -k AGT
d -t 27.877523434 -s 1 -d -1 -p cbr -e 532 -c 2 -a 0 -i 3 -k RTR
+ -t 28.158092962 -s 1 -d -1 -p cbr -e 512 -c 2 -a 0 -i 68 -k AGT 
- -t 28.158092962 -s 1 -d -1 -p cbr -e 512 -c 2 -a 0 -i 68 -k AGT
h -t 28.158092962 -s 1 -d -1 -p cbr -e 512 -c 2 -a 0 -i 68 -k AGT
d -t 28.158092962 -s 1 -d -1 -p cbr -e 532 -c 2 -a 0 -i 4 -k RTR
+ -t 28.403701317 -s 1 -d -1 -p cbr -e 512 -c 2 -a 0 -i 69 -k AGT 
- -t 28.403701317 -s 1 -d -1 -p cbr -e 512 -c 2 -a 0 -i 69 -k AGT
h -t 28.403701317 -s 1 -d -1 -p cbr -e 512 -c 2 -a 0 -i 69 -k AGT
d -t 28.403701317 -s 1 -d -1 -p cbr -e 532 -c 2 -a 0 -i 5 -k RTR
+ -t 28.678630577 -s 1 -d -1 -p cbr -e 512 -c 2 -a 0 -i 70 -k AGT 
- -t 28.678630577 -s 1 -d -1 -p cbr -e 512 -c 2 -a 0 -i 70 -k AGT
h -t 28.678630577 -s 1 -d -1 -p cbr -e 512 -c 2 -a 0 -i 70 -k AGT
d -t 28.678630577 -s 1 -d -1 -p cbr -e 532 -c 2 -a 0 -i 6 -k RTR
+ -t 28.895853073 -s 1 -d -1 -p cbr -e 512 -c 2 -a 0 -i 71 -k AGT 
- -t 28.895853073 -s 1 -d -1 -p cbr -e 512 -c 2 -a 0 -i 71 -k AGT
h -t 28.895853073 -s 1 -d -1 -p cbr -e 512 -c 2 -a 0 -i 71 -k AGT
d -t 28.895853073 -s 1 -d -1 -p cbr -e 532 -c 2 -a 0 -i 7 -k RTR
+ -t 29.143021179 -s 1 -d -1 -p cbr -e 512 -c 2 -a 0 -i 72 -k AGT 
- -t 29.143021179 -s 1 -d -1 -p cbr -e 512 -c 2 -a 0 -i 72 -k AGT
h -t 29.143021179 -s 1 -d -1 -p cbr -e 512 -c 2 -a 0 -i 72 -k AGT
d -t 29.143021179 -s 1 -d -1 -p cbr -e 532 -c 2 -a 0 -i 8 -k RTR
+ -t 29.403423552 -s 1 -d -1 -p cbr -e 512 -c 2 -a 0 -i 73 -k AGT 
- -t 29.403423552 -s 1 -d -1 -p cbr -e 512 -c 2 -a 0 -i 73 -k AGT
h -t 29.403423552 -s 1 -d -1 -p cbr -e 512 -c 2 -a 0 -i 73 -k AGT
d -t 29.403423552 -s 1 -d -1 -p cbr -e 532 -c 2 -a 0 -i 9 -k RTR
+ -t 29.574635268 -s 1 -d -1 -p cbr -e 512 -c 2 -a 0 -i 74 -k AGT 
- -t 29.574635268 -s 1 -d -1 -p cbr -e 512 -c 2 -a 0 -i 74 -k AGT
h -t 29.574635268 -s 1 -d -1 -p cbr -e 512 -c 2 -a 0 -i 74 -k AGT
d -t 29.574635268 -s 1 -d -1 -p cbr -e 532 -c 2 -a 0 -i 10 -k RTR
+ -t 29.786316985 -s 1 -d -1 -p cbr -e 512 -c 2 -a 0 -i 75 -k AGT 
- -t 29.786316985 -s 1 -d -1 -p cbr -e 512 -c 2 -a 0 -i 75 -k AGT
h -t 29.786316985 -s 1 -d -1 -p cbr -e 512 -c 2 -a 0 -i 75 -k AGT
d -t 29.786316985 -s 1 -d -1 -p cbr -e 532 -c 2 -a 0 -i 11 -k RTR
+ -t 30.049433454 -s 1 -d -1 -p cbr -e 512 -c 2 -a 0 -i 76 -k AGT 
- -t 30.049433454 -s 1 -d -1 -p cbr -e 512 -c 2 -a 0 -i 76 -k AGT
h -t 30.049433454 -s 1 -d -1 -p cbr -e 512 -c 2 -a 0 -i 76 -k AGT
d -t 30.049433454 -s 1 -d -1 -p cbr -e 532 -c 2 -a 0 -i 12 -k RTR
+ -t 30.306188463 -s 1 -d -1 -p cbr -e 512 -c 2 -a 0 -i 77 -k AGT 
- -t 30.306188463 -s 1 -d -1 -p cbr -e 512 -c 2 -a 0 -i 77 -k AGT
h -t 30.306188463 -s 1 -d -1 -p cbr -e 512 -c 2 -a 0 -i 77 -k AGT
d -t 30.306188463 -s 1 -d -1 -p cbr -e 532 -c 2 -a 0 -i 13 -k RTR
+ -t 30.538893646 -s 1 -d -1 -p cbr -e 512 -c 2 -a 0 -i 78 -k AGT 
- -t 30.538893646 -s 1 -d -1 -p cbr -e 512 -c 2 -a 0 -i 78 -k AGT
h -t 30.538893646 -s 1 -d -1 -p cbr -e 512 -c 2 -a 0 -i 78 -k AGT
d -t 30.538893646 -s 1 -d -1 -p cbr -e 532 -c 2 -a 0 -i 14 -k RTR
+ -t 30.668891332 -s 1 -d -1 -p cbr -e 512 -c 2 -a 0 -i 79 -k AGT 
- -t 30.668891332 -s 1 -d -1 -p cbr -e 512 -c 2 -a 0 -i 79 -k AGT
h -t 30.668891332 -s 1 -d -1 -p cbr -e 512 -c 2 -a 0 -i 79 -k AGT
d -t 30.668891332 -s 1 -d -1 -p cbr -e 532 -c 2 -a 0 -i 15 -k RTR
+ -t 30.850166835 -s 1 -d -1 -p cbr -e 512 -c 2 -a 0 -i 80 -k AGT 
- -t 30.850166835 -s 1 -d -1 -p cbr -e 512 -c 2 -a 0 -i 80 -k AGT
h -t 30.850166835 -s 1 -d -1 -p cbr -e 512 -c 2 -a 0 -i 80 -k AGT
d -t 30.850166835 -s 1 -d -1 -p cbr -e 532 -c 2 -a 0 -i 16 -k RTR
+ -t 31.059391439 -s 1 -d -1 -p cbr -e 512 -c 2 -a 0 -i 81 -k AGT 
- -t 31.059391439 -s 1 -d -1 -p cbr -e 512 -c 2 -a 0 -i 81 -k AGT
h -t 31.059391439 -s 1 -d -1 -p cbr -e 512 -c 2 -a 0 -i 81 -k AGT
d -t 31.059391439 -s 1 -d -1 -p cbr -e 532 -c 2 -a 0 -i 17 -k RTR
n -t 31.164387 -s 2 -x 216.115734 -y 190.863803 -U 4.207053 -V 0.427832 -T 105.417452
+ -t 31.234112208 -s 1 -d -1 -p cbr -e 512 -c 2 -a 0 -i 82 -k AGT 
- -t 31.234112208 -s 1 -d -1 -p cbr -e 512 -c 2 -a 0 -i 82 -k AGT
h -t 31.234112208 -s 1 -d -1 -p cbr -e 512 -c 2 -a 0 -i 82 -k AGT
d -t 31.234112208 -s 1 -d -1 -p cbr -e 532 -c 2 -a 0 -i 18 -k RTR
+ -t 31.334147116 -s 1 -d -1 -p cbr -e 512 -c 2 -a 0 -i 83 -k AGT 
- -t 31.334147116 -s 1 -d -1 -p cbr -e 512 -c 2 -a 0 -i 83 -k AGT
h -t 31.334147116 -s 1 -d -1 -p cbr -e 512 -c 2 -a 0 -i 83 -k AGT
d -t 31.334147116 -s 1 -d -1 -p cbr -e 532 -c 2 -a 0 -i 19 -k RTR
+ -t 31.450833094 -s 1 -d -1 -p cbr -e 512 -c 2 -a 0 -i 84 -k AGT 
- -t 31.450833094 -s 1 -d -1 -p cbr -e 512 -c 2 -a 0 -i 84 -k AGT
h -t 31.450833094 -s 1 -d -1 -p cbr -e 512 -c 2 -a 0 -i 84 -k AGT
d -t 31.450833094 -s 1 -d -1 -p cbr -e 532 -c 2 -a 0 -i 20 -k RTR
+ -t 31.617275980 -s 1 -d -1 -p cbr -e 512 -c 2 -a 0 -i 85 -k AGT 
- -t 31.617275980 -s 1 -d -1 -p cbr -e 512 -c 2 -a 0 -i 85 -k AGT
h -t 31.617275980 -s 1 -d -1 -p cbr -e 512 -c 2 -a 0 -i 85 -k AGT
d -t 31.617275980 -s 1 -d -1 -p cbr -e 532 -c 2 -a 0 -i 21 -k RTR
+ -t 31.856413941 -s 1 -d -1 -p cbr -e 512 -c 2 -a 0 -i 86 -k AGT 
- -t 31.856413941 -s 1 -d -1 -p cbr -e 512 -c 2 -a 0 -i 86 -k AGT
h -t 31.856413941 -s 1 -d -1 -p cbr -e 512 -c 2 -a 0 -i 86 -k AGT
d -t 31.856413941 -s 1 -d -1 -p cbr -e 532 -c 2 -a 0 -i 22 -k RTR
+ -t 32.138801781 -s 1 -d -1 -p cbr -e 512 -c 2 -a 0 -i 87 -k AGT 
- -t 32.138801781 -s 1 -d -1 -p cbr -e 512 -c 2 -a 0 -i 87 -k AGT
h -t 32.138801781 -s 1 -d -1 -p cbr -e 512 -c 2 -a 0 -i 87 -k AGT
d -t 32.138801781 -s 1 -d -1 -p cbr -e 532 -c 2 -a 0 -i 23 -k RTR
+ -t 32.245360252 -s 1 -d -1 -p cbr -e 512 -c 2 -a 0 -i 88 -k AGT 
- -t 32.245360252 -s 1 -d -1 -p cbr -e 512 -c 2 -a 0 -i 88 -k AGT
h -t 32.245360252 -s 1 -d -1 -p cbr -e 512 -c 2 -a 0 -i 88 -k AGT
d -t 32.245360252 -s 1 -d -1 -p cbr -e 532 -c 2 -a 0 -i 24 -k RTR
+ -t 32.418409717 -s 1 -d -1 -p cbr -e 512 -c 2 -a 0 -i 89 -k AGT 
- -t 32.418409717 -s 1 -d -1 -p cbr -e 512 -c 2 -a 0 -i 89 -k AGT
h -t 32.418409717 -s 1 -d -1 -p cbr -e 512 -c 2 -a 0 -i 89 -k AGT
d -t 32.418409717 -s 1 -d -1 -p cbr -e 532 -c 2 -a 0 -i 25 -k RTR
+ -t 32.579407512 -s 1 -d -1 -p cbr -e 512 -c 2 -a 0 -i 90 -k AGT 
- -t 32.579407512 -s 1 -d -1 -p cbr -e 512 -c 2 -a 0 -i 90 -k AGT
h -t 32.579407512 -s 1 -d -1 -p cbr -e 512 -c 2 -a 0 -i 90 -k AGT
d -t 32.579407512 -s 1 -d -1 -p cbr -e 532 -c 2 -a 0 -i 26 -k RTR
+ -t 32.680077565 -s 1 -d -1 -p cbr -e 512 -c 2 -a 0 -i 91 -k AGT 
- -t 32.680077565 -s 1 -d -1 -p cbr -e 512 -c 2 -a 0 -i 91 -k AGT
h -t 32.680077565 -s 1 -d -1 -p cbr -e 512 -c 2 -a 0 -i 91 -k AGT
d -t 32.680077565 -s 1 -d -1 -p cbr -e 532 -c 2 -a 0 -i 27 -k RTR
+ -t 32.844424528 -s 1 -d -1 -p cbr -e 512 -c 2 -a 0 -i 92 -k AGT 
- -t 32.844424528 -s 1 -d -1 -p cbr -e 512 -c 2 -a 0 -i 92 -k AGT
h -t 32.844424528 -s 1 -d -1 -p cbr -e 512 -c 2 -a 0 -i 92 -k AGT
d -t 32.844424528 -s 1 -d -1 -p cbr -e 532 -c 2 -a 0 -i 28 -k RTR
+ -t 33.120676024 -s 1 -d -1 -p cbr -e 512 -c 2 -a 0 -i 93 -k AGT 
- -t 33.120676024 -s 1 -d -1 -p cbr -e 512 -c 2 -a 0 -i 93 -k AGT
h -t 33.120676024 -s 1 -d -1 -p cbr -e 512 -c 2 -a 0 -i 93 -k AGT
d -t 33.120676024 -s 1 -d -1 -p cbr -e 532 -c 2 -a 0 -i 29 -k RTR
d -t 33.120676024 -s 1 -d -1 -p cbr -e 532 -c 2 -a 0 -i 30 -k RTR
d -t 33.120676024 -s 1 -d -1 -p cbr -e 532 -c 2 -a 0 -i 31 -k RTR
d -t 33.120676024 -s 1 -d -1 -p cbr -e 532 -c 2 -a 0 -i 32 -k RTR
d -t 33.120676024 -s 1 -d -1 -p cbr -e 532 -c 2 -a 0 -i 33 -k RTR
d -t 33.120676024 -s 1 -d -1 -p cbr -e 532 -c 2 -a 0 -i 34 -k RTR
d -t 33.120676024 -s 1 -d -1 -p cbr -e 532 -c 2 -a 0 -i 35 -k RTR
d -t 33.120676024 -s 1 -d -1 -p cbr -e 532 -c 2 -a 0 -i 36 -k RTR
d -t 33.120676024 -s 1 -d -1 -p cbr -e 532 -c 2 -a 0 -i 37 -k RTR
d -t 33.120676024 -s 1 -d -1 -p cbr -e 532 -c 2 -a 0 -i 38 -k RTR
d -t 33.120676024 -s 1 -d -1 -p cbr -e 532 -c 2 -a 0 -i 39 -k RTR
d -t 33.120676024 -s 1 -d -1 -p cbr -e 532 -c 2 -a 0 -i 40 -k RTR
d -t 33.120676024 -s 1 -d -1 -p cbr -e 532 -c 2 -a 0 -i 41 -k RTR
d -t 33.120676024 -s 1 -d -1 -p cbr -e 532 -c 2 -a 0 -i 42 -k RTR
d -t 33.120676024 -s 1 -d -1 -p cbr -e 532 -c 2 -a 0 -i 43 -k RTR
d -t 33.120676024 -s 1 -d -1 -p cbr -e 532 -c 2 -a 0 -i 44 -k RTR
d -t 33.120676024 -s 1 -d -1 -p cbr -e 532 -c 2 -a 0 -i 45 -k RTR
d -t 33.120676024 -s 1 -d -1 -p cbr -e 532 -c 2 -a 0 -i 46 -k RTR
d -t 33.120676024 -s 1 -d -1 -p cbr -e 532 -c 2 -a 0 -i 47 -k RTR
d -t 33.120676024 -s 1 -d -1 -p cbr -e 532 -c 2 -a 0 -i 48 -k RTR
d -t 33.120676024 -s 1 -d -1 -p cbr -e 532 -c 2 -a 0 -i 49 -k RTR
d -t 33.120676024 -s 1 -d -1 -p cbr -e 532 -c 2 -a 0 -i 50 -k RTR
d -t 33.120676024 -s 1 -d -1 -p cbr -e 532 -c 2 -a 0 -i 51 -k RTR
d -t 33.120676024 -s 1 -d -1 -p cbr -e 532 -c 2 -a 0 -i 52 -k RTR
d -t 33.120676024 -s 1 -d -1 -p cbr -e 532 -c 2 -a 0 -i 53 -k RTR
d -t 33.120676024 -s 1 -d -1 -p cbr -e 532 -c 2 -a 0 -i 54 -k RTR
d -t 33.120676024 -s 1 -d -1 -p cbr -e 532 -c 2 -a 0 -i 55 -k RTR
d -t 33.120676024 -s 1 -d -1 -p cbr -e 532 -c 2 -a 0 -i 56 -k RTR
d -t 33.120676024 -s 1 -d -1 -p cbr -e 532 -c 2 -a 0 -i 57 -k RTR
d -t 33.120676024 -s 1 -d -1 -p cbr -e 532 -c 2 -a 0 -i 58 -k RTR
d -t 33.120676024 -s 1 -d -1 -p cbr -e 532 -c 2 -a 0 -i 59 -k RTR
d -t 33.120676024 -s 1 -d -1 -p cbr -e 532 -c 2 -a 0 -i 60 -k RTR
d -t 33.120676024 -s 1 -d -1 -p cbr -e 532 -c 2 -a 0 -i 61 -k RTR
d -t 33.120676024 -s 1 -d -1 -p cbr -e 532 -c 2 -a 0 -i 62 -k RTR
d -t 33.120676024 -s 1 -d -1 -p cbr -e 532 -c 2 -a 0 -i 63 -k RTR
d -t 33.120676024 -s 1 -d -1 -p cbr -e 532 -c 2 -a 0 -i 64 -k RTR
d -t 33.120676024 -s 1 -d -1 -p cbr -e 532 -c 2 -a 0 -i 65 -k RTR
d -t 33.120676024 -s 1 -d -1 -p cbr -e 532 -c 2 -a 0 -i 66 -k RTR
d -t 33.120676024 -s 1 -d -1 -p cbr -e 532 -c 2 -a 0 -i 67 -k RTR
d -t 33.120676024 -s 1 -d -1 -p cbr -e 532 -c 2 -a 0 -i 68 -k RTR
d -t 33.120676024 -s 1 -d -1 -p cbr -e 532 -c 2 -a 0 -i 69 -k RTR
d -t 33.120676024 -s 1 -d -1 -p cbr -e 532 -c 2 -a 0 -i 70 -k RTR
d -t 33.120676024 -s 1 -d -1 -p cbr -e 532 -c 2 -a 0 -i 71 -k RTR
d -t 33.120676024 -s 1 -d -1 -p cbr -e 532 -c 2 -a 0 -i 72 -k RTR
d -t 33.120676024 -s 1 -d -1 -p cbr -e 532 -c 2 -a 0 -i 73 -k RTR
d -t 33.120676024 -s 1 -d -1 -p cbr -e 532 -c 2 -a 0 -i 74 -k RTR
d -t 33.120676024 -s 1 -d -1 -p cbr -e 532 -c 2 -a 0 -i 75 -k RTR
d -t 33.120676024 -s 1 -d -1 -p cbr -e 532 -c 2 -a 0 -i 76 -k RTR
d -t 33.120676024 -s 1 -d -1 -p cbr -e 532 -c 2 -a 0 -i 77 -k RTR
d -t 33.120676024 -s 1 -d -1 -p cbr -e 532 -c 2 -a 0 -i 78 -k RTR
d -t 33.120676024 -s 1 -d -1 -p cbr -e 532 -c 2 -a 0 -i 79 -k RTR
d -t 33.120676024 -s 1 -d -1 -p cbr -e 532 -c 2 -a 0 -i 80 -k RTR
d -t 33.120676024 -s 1 -d -1 -p cbr -e 532 -c 2 -a 0 -i 81 -k RTR
d -t 33.120676024 -s 1 -d -1 -p cbr -e 532 -c 2 -a 0 -i 82 -k RTR
d -t 33.120676024 -s 1 -d -1 -p cbr -e 532 -c 2 -a 0 -i 83 -k RTR
d -t 33.120676024 -s 1 -d -1 -p cbr -e 532 -c 2 -a 0 -i 84 -k RTR
d -t 33.120676024 -s 1 -d -1 -p cbr -e 532 -c 2 -a 0 -i 85 -k RTR
d -t 33.120676024 -s 1 -d -1 -p cbr -e 532 -c 2 -a 0 -i 86 -k RTR
d -t 33.120676024 -s 1 -d -1 -p cbr -e 532 -c 2 -a 0 -i 87 -k RTR
d -t 33.120676024 -s 1 -d -1 -p cbr -e 532 -c 2 -a 0 -i 88 -k RTR
d -t 33.120676024 -s 1 -d -1 -p cbr -e 532 -c 2 -a 0 -i 89 -k RTR
d -t 33.120676024 -s 1 -d -1 -p cbr -e 532 -c 2 -a 0 -i 90 -k RTR
d -t 33.120676024 -s 1 -d -1 -p cbr -e 532 -c 2 -a 0 -i 91 -k RTR
d -t 33.120676024 -s 1 -d -1 -p cbr -e 532 -c 2 -a 0 -i 92 -k RTR
d -t 33.120676024 -s 1 -d -1 -p cbr -e 532 -c 2 -a 0 -i 93 -k RTR
+ -t 33.396675150 -s 1 -d -1 -p cbr -e 512 -c 2 -a 0 -i 94 -k AGT 
- -t 33.396675150 -s 1 -d -1 -p cbr -e 512 -c 2 -a 0 -i 94 -k AGT
h -t 33.396675150 -s 1 -d -1 -p cbr -e 512 -c 2 -a 0 -i 94 -k AGT
+ -t 33.657841517 -s 1 -d -1 -p cbr -e 512 -c 2 -a 0 -i 95 -k AGT 
- -t 33.657841517 -s 1 -d -1 -p cbr -e 512 -c 2 -a 0 -i 95 -k AGT
h -t 33.657841517 -s 1 -d -1 -p cbr -e 512 -c 2 -a 0 -i 95 -k AGT
+ -t 33.792085320 -s 1 -d -1 -p cbr -e 512 -c 2 -a 0 -i 96 -k AGT 
- -t 33.792085320 -s 1 -d -1 -p cbr -e 512 -c 2 -a 0 -i 96 -k AGT
h -t 33.792085320 -s 1 -d -1 -p cbr -e 512 -c 2 -a 0 -i 96 -k AGT
+ -t 33.898473605 -s 1 -d -1 -p cbr -e 512 -c 2 -a 0 -i 97 -k AGT 
- -t 33.898473605 -s 1 -d -1 -p cbr -e 512 -c 2 -a 0 -i 97 -k AGT
h -t 33.898473605 -s 1 -d -1 -p cbr -e 512 -c 2 -a 0 -i 97 -k AGT
+ -t 34.149520699 -s 1 -d -1 -p cbr -e 512 -c 2 -a 0 -i 98 -k AGT 
- -t 34.149520699 -s 1 -d -1 -p cbr -e 512 -c 2 -a 0 -i 98 -k AGT
h -t 34.149520699 -s 1 -d -1 -p cbr -e 512 -c 2 -a 0 -i 98 -k AGT
+ -t 34.372592024 -s 1 -d -1 -p cbr -e 512 -c 2 -a 0 -i 99 -k AGT 
- -t 34.372592024 -s 1 -d -1 -p cbr -e 512 -c 2 -a 0 -i 99 -k AGT
h -t 34.372592024 -s 1 -d -1 -p cbr -e 512 -c 2 -a 0 -i 99 -k AGT
+ -t 34.630517698 -s 1 -d -1 -p cbr -e 512 -c 2 -a 0 -i 100 -k AGT 
- -t 34.630517698 -s 1 -d -1 -p cbr -e 512 -c 2 -a 0 -i 100 -k AGT
h -t 34.630517698 -s 1 -d -1 -p cbr -e 512 -c 2 -a 0 -i 100 -k AGT
+ -t 34.834667074 -s 1 -d -1 -p cbr -e 512 -c 2 -a 0 -i 101 -k AGT 
- -t 34.834667074 -s 1 -d -1 -p cbr -e 512 -c 2 -a 0 -i 101 -k AGT