s 0.000000000 _12_ AGT  --- 0 cbr 1000 [0 0 0 0] ------- [12:0 15:0 32 0] [0] 0 0
r 0.000000000 _12_ RTR  --- 0 cbr 1000 [0 0 0 0] ------- [12:0 15:0 32 0] [0] 0 0
s 0.000000000 _12_ RTR  --- 0 AODV 48 [0 0 0 0] ------- [12:255 -1:255 30 0] [0x2 1 1 [15 0] [12 4]] (REQUEST)
s 0.000535000 _12_ MAC  --- 0 AODV 106 [0 ffffffff c 800] ------- [12:255 -1:255 30 0] [0x2 1 1 [15 0] [12 4]] (REQUEST)
r 0.001383333 _14_ MAC  --- 0 AODV 48 [0 ffffffff c 800] ------- [12:255 -1:255 30 0] [0x2 1 1 [15 0] [12 4]] (REQUEST)
r 0.001383663 _0_ MAC  --- 0 AODV 48 [0 ffffffff c 800] ------- [12:255 -1:255 30 0] [0x2 1 1 [15 0] [12 4]] (REQUEST)
r 0.001383741 _3_ MAC  --- 0 AODV 48 [0 ffffffff c 800] ------- [12:255 -1:255 30 0] [0x2 1 1 [15 0] [12 4]] (REQUEST)
r 0.001383744 _1_ MAC  --- 0 AODV 48 [0 ffffffff c 800] ------- [12:255 -1:255 30 0] [0x2 1 1 [15 0] [12 4]] (REQUEST)
r 0.001383745 _2_ MAC  --- 0 AODV 48 [0 ffffffff c 800] ------- [12:255 -1:255 30 0] [0x2 1 1 [15 0] [12 4]] (REQUEST)
r 0.001383748 _4_ MAC  --- 0 AODV 48 [0 ffffffff c 800] ------- [12:255 -1:255 30 0] [0x2 1 1 [15 0] [12 4]] (REQUEST)
r 0.001384196 _11_ MAC  --- 0 AODV 48 [0 ffffffff c 800] ------- [12:255 -1:255 30 0] [0x2 1 1 [15 0] [12 4]] (REQUEST)
r 0.001384196 _10_ MAC  --- 0 AODV 48 [0 ffffffff c 800] ------- [12:255 -1:255 30 0] [0x2 1 1 [15 0] [12 4]] (REQUEST)
r 0.001408333 _14_ RTR  --- 0 AODV 48 [0 ffffffff c 800] ------- [12:255 -1:255 30 0] [0x2 1 1 [15 0] [12 4]] (REQUEST)
r 0.001408663 _0_ RTR  --- 0 AODV 48 [0 ffffffff c 800] ------- [12:255 -1:255 30 0] [0x2 1 1 [15 0] [12 4]] (REQUEST)
r 0.001408741 _3_ RTR  --- 0 AODV 48 [0 ffffffff c 800] ------- [12:255 -1:255 30 0] [0x2 1 1 [15 0] [12 4]] (REQUEST)
r 0.001408744 _1_ RTR  --- 0 AODV 48 [0 ffffffff c 800] ------- [12:255 -1:255 30 0] [0x2 1 1 [15 0] [12 4]] (REQUEST)
r 0.001408745 _2_ RTR  --- 0 AODV 48 [0 ffffffff c 800] ------- [12:255 -1:255 30 0] [0x2 1 1 [15 0] [12 4]] (REQUEST)
r 0.001408748 _4_ RTR  --- 0 AODV 48 [0 ffffffff c 800] ------- [12:255 -1:255 30 0] [0x2 1 1 [15 0] [12 4]] (REQUEST)
r 0.001409196 _11_ RTR  --- 0 AODV 48 [0 ffffffff c 800] ------- [12:255 -1:255 30 0] [0x2 1 1 [15 0] [12 4]] (REQUEST)
r 0.001409196 _10_ RTR  --- 0 AODV 48 [0 ffffffff c 800] ------- [12:255 -1:255 30 0] [0x2 1 1 [15 0] [12 4]] (REQUEST)
s 0.001550380 _14_ RTR  --- 0 AODV 48 [0 ffffffff c 800] ------- [14:255 -1:255 29 0] [0x2 2 1 [15 0] [12 4]] (REQUEST)
s 0.001885380 _14_ MAC  --- 0 AODV 106 [0 ffffffff e 800] ------- [14:255 -1:255 29 0] [0x2 2 1 [15 0] [12 4]] (REQUEST)
s 0.002289890 _0_ RTR  --- 0 AODV 48 [0 ffffffff c 800] ------- [0:255 -1:255 29 0] [0x2 2 1 [15 0] [12 4]] (REQUEST)
r 0.002733713 _12_ MAC  --- 0 AODV 48 [0 ffffffff e 800] ------- [14:255 -1:255 29 0] [0x2 2 1 [15 0] [12 4]] (REQUEST)
r 0.002733844 _3_ MAC  --- 0 AODV 48 [0 ffffffff e 800] ------- [14:255 -1:255 29 0] [0x2 2 1 [15 0] [12 4]] (REQUEST)
r 0.002733854 _2_ MAC  --- 0 AODV 48 [0 ffffffff e 800] ------- [14:255 -1:255 29 0] [0x2 2 1 [15 0] [12 4]] (REQUEST)
r 0.002734127 _0_ MAC  --- 0 AODV 48 [0 ffffffff e 800] ------- [14:255 -1:255 29 0] [0x2 2 1 [15 0] [12 4]] (REQUEST)
r 0.002734431 _11_ MAC  --- 0 AODV 48 [0 ffffffff e 800] ------- [14:255 -1:255 29 0] [0x2 2 1 [15 0] [12 4]] (REQUEST)
r 0.002734434 _1_ MAC  --- 0 AODV 48 [0 ffffffff e 800] ------- [14:255 -1:255 29 0] [0x2 2 1 [15 0] [12 4]] (REQUEST)
r 0.002734436 _4_ MAC  --- 0 AODV 48 [0 ffffffff e 800] ------- [14:255 -1:255 29 0] [0x2 2 1 [15 0] [12 4]] (REQUEST)
r 0.002734792 _10_ MAC  --- 0 AODV 48 [0 ffffffff e 800] ------- [14:255 -1:255 29 0] [0x2 2 1 [15 0] [12 4]] (REQUEST)
r 0.002735079 _9_ MAC  --- 0 AODV 48 [0 ffffffff e 800] ------- [14:255 -1:255 29 0] [0x2 2 1 [15 0] [12 4]] (REQUEST)
r 0.002758713 _12_ RTR  --- 0 AODV 48 [0 ffffffff e 800] ------- [14:255 -1:255 29 0] [0x2 2 1 [15 0] [12 4]] (REQUEST)
r 0.002758844 _3_ RTR  --- 0 AODV 48 [0 ffffffff e 800] ------- [14:255 -1:255 29 0] [0x2 2 1 [15 0] [12 4]] (REQUEST)
r 0.002758854 _2_ RTR  --- 0 AODV 48 [0 ffffffff e 800] ------- [14:255 -1:255 29 0] [0x2 2 1 [15 0] [12 4]] (REQUEST)
r 0.002759127 _0_ RTR  --- 0 AODV 48 [0 ffffffff e 800] ------- [14:255 -1:255 29 0] [0x2 2 1 [15 0] [12 4]] (REQUEST)
r 0.002759431 _11_ RTR  --- 0 AODV 48 [0 ffffffff e 800] ------- [14:255 -1:255 29 0] [0x2 2 1 [15 0] [12 4]] (REQUEST)
r 0.002759434 _1_ RTR  --- 0 AODV 48 [0 ffffffff e 800] ------- [14:255 -1:255 29 0] [0x2 2 1 [15 0] [12 4]] (REQUEST)
r 0.002759436 _4_ RTR  --- 0 AODV 48 [0 ffffffff e 800] ------- [14:255 -1:255 29 0] [0x2 2 1 [15 0] [12 4]] (REQUEST)
r 0.002759792 _10_ RTR  --- 0 AODV 48 [0 ffffffff e 800] ------- [14:255 -1:255 29 0] [0x2 2 1 [15 0] [12 4]] (REQUEST)
r 0.002760079 _9_ RTR  --- 0 AODV 48 [0 ffffffff e 800] ------- [14:255 -1:255 29 0] [0x2 2 1 [15 0] [12 4]] (REQUEST)
s 0.003024127 _0_ MAC  --- 0 AODV 106 [0 ffffffff 0 800] ------- [0:255 -1:255 29 0] [0x2 2 1 [15 0] [12 4]] (REQUEST)
s 0.003188025 _9_ RTR  --- 0 AODV 48 [0 ffffffff e 800] ------- [9:255 -1:255 28 0] [0x2 3 1 [15 0] [12 4]] (REQUEST)
s 0.003755214 _11_ RTR  --- 0 AODV 48 [0 ffffffff c 800] ------- [11:255 -1:255 29 0] [0x2 2 1 [15 0] [12 4]] (REQUEST)
r 0.003872790 _12_ MAC  --- 0 AODV 48 [0 ffffffff 0 800] ------- [0:255 -1:255 29 0] [0x2 2 1 [15 0] [12 4]] (REQUEST)
r 0.003872868 _10_ MAC  --- 0 AODV 48 [0 ffffffff 0 800] ------- [0:255 -1:255 29 0] [0x2 2 1 [15 0] [12 4]] (REQUEST)
r 0.003872869 _1_ MAC  --- 0 AODV 48 [0 ffffffff 0 800] ------- [0:255 -1:255 29 0] [0x2 2 1 [15 0] [12 4]] (REQUEST)
r 0.003872874 _14_ MAC  --- 0 AODV 48 [0 ffffffff 0 800] ------- [0:255 -1:255 29 0] [0x2 2 1 [15 0] [12 4]] (REQUEST)
r 0.003872874 _11_ MAC  --- 0 AODV 48 [0 ffffffff 0 800] ------- [0:255 -1:255 29 0] [0x2 2 1 [15 0] [12 4]] (REQUEST)
r 0.003872874 _2_ MAC  --- 0 AODV 48 [0 ffffffff 0 800] ------- [0:255 -1:255 29 0] [0x2 2 1 [15 0] [12 4]] (REQUEST)
r 0.003873323 _3_ MAC  --- 0 AODV 48 [0 ffffffff 0 800] ------- [0:255 -1:255 29 0] [0x2 2 1 [15 0] [12 4]] (REQUEST)
r 0.003873326 _4_ MAC  --- 0 AODV 48 [0 ffffffff 0 800] ------- [0:255 -1:255 29 0] [0x2 2 1 [15 0] [12 4]] (REQUEST)
r 0.003897790 _12_ RTR  --- 0 AODV 48 [0 ffffffff 0 800] ------- [0:255 -1:255 29 0] [0x2 2 1 [15 0] [12 4]] (REQUEST)
r 0.003897868 _10_ RTR  --- 0 AODV 48 [0 ffffffff 0 800] ------- [0:255 -1:255 29 0] [0x2 2 1 [15 0] [12 4]] (REQUEST)
r 0.003897869 _1_ RTR  --- 0 AODV 48 [0 ffffffff 0 800] ------- [0:255 -1:255 29 0] [0x2 2 1 [15 0] [12 4]] (REQUEST)
r 0.003897874 _14_ RTR  --- 0 AODV 48 [0 ffffffff 0 800] ------- [0:255 -1:255 29 0] [0x2 2 1 [15 0] [12 4]] (REQUEST)
r 0.003897874 _11_ RTR  --- 0 AODV 48 [0 ffffffff 0 800] ------- [0:255 -1:255 29 0] [0x2 2 1 [15 0] [12 4]] (REQUEST)
r 0.003897874 _2_ RTR  --- 0 AODV 48 [0 ffffffff 0 800] ------- [0:255 -1:255 29 0] [0x2 2 1 [15 0] [12 4]] (REQUEST)
r 0.003898323 _3_ RTR  --- 0 AODV 48 [0 ffffffff 0 800] ------- [0:255 -1:255 29 0] [0x2 2 1 [15 0] [12 4]] (REQUEST)
r 0.003898326 _4_ RTR  --- 0 AODV 48 [0 ffffffff 0 800] ------- [0:255 -1:255 29 0] [0x2 2 1 [15 0] [12 4]] (REQUEST)
s 0.004282874 _11_ MAC  --- 0 AODV 106 [0 ffffffff b 800] ------- [11:255 -1:255 29 0] [0x2 2 1 [15 0] [12 4]] (REQUEST)
s 0.004448554 _9_ MAC  --- 0 AODV 106 [0 ffffffff 9 800] ------- [9:255 -1:255 28 0] [0x2 3 1 [15 0] [12 4]] (REQUEST)
D 0.004449894 _3_ MAC  COL 0 AODV 106 [0 ffffffff b 800] ------- [11:255 -1:255 29 0] [0x2 2 1 [15 0] [12 4]] (REQUEST)
D 0.004450253 _14_ MAC  COL 0 AODV 106 [0 ffffffff b 800] ------- [11:255 -1:255 29 0] [0x2 2 1 [15 0] [12 4]] (REQUEST)
D 0.004450350 _12_ MAC  COL 0 AODV 106 [0 ffffffff b 800] ------- [11:255 -1:255 29 0] [0x2 2 1 [15 0] [12 4]] (REQUEST)
D 0.004450955 _1_ MAC  COL 0 AODV 106 [0 ffffffff b 800] ------- [11:255 -1:255 29 0] [0x2 2 1 [15 0] [12 4]] (REQUEST)
s 0.004538363 _2_ RTR  --- 0 AODV 48 [0 ffffffff c 800] ------- [2:255 -1:255 29 0] [0x2 2 1 [15 0] [12 4]] (REQUEST)
r 0.005131534 _2_ MAC  --- 0 AODV 48 [0 ffffffff b 800] ------- [11:255 -1:255 29 0] [0x2 2 1 [15 0] [12 4]] (REQUEST)
r 0.005131621 _0_ MAC  --- 0 AODV 48 [0 ffffffff b 800] ------- [11:255 -1:255 29 0] [0x2 2 1 [15 0] [12 4]] (REQUEST)
r 0.005132207 _10_ MAC  --- 0 AODV 48 [0 ffffffff b 800] ------- [11:255 -1:255 29 0] [0x2 2 1 [15 0] [12 4]] (REQUEST)
r 0.005156534 _2_ RTR  --- 0 AODV 48 [0 ffffffff b 800] ------- [11:255 -1:255 29 0] [0x2 2 1 [15 0] [12 4]] (REQUEST)
r 0.005156621 _0_ RTR  --- 0 AODV 48 [0 ffffffff b 800] ------- [11:255 -1:255 29 0] [0x2 2 1 [15 0] [12 4]] (REQUEST)
r 0.005157207 _10_ RTR  --- 0 AODV 48 [0 ffffffff b 800] ------- [11:255 -1:255 29 0] [0x2 2 1 [15 0] [12 4]] (REQUEST)
r 0.005297220 _8_ MAC  --- 0 AODV 48 [0 ffffffff 9 800] ------- [9:255 -1:255 28 0] [0x2 3 1 [15 0] [12 4]] (REQUEST)
r 0.005297299 _13_ MAC  --- 0 AODV 48 [0 ffffffff 9 800] ------- [9:255 -1:255 28 0] [0x2 3 1 [15 0] [12 4]] (REQUEST)
r 0.005297604 _15_ MAC  --- 0 AODV 48 [0 ffffffff 9 800] ------- [9:255 -1:255 28 0] [0x2 3 1 [15 0] [12 4]] (REQUEST)
r 0.005297751 _7_ MAC  --- 0 AODV 48 [0 ffffffff 9 800] ------- [9:255 -1:255 28 0] [0x2 3 1 [15 0] [12 4]] (REQUEST)
r 0.005297880 _5_ MAC  --- 0 AODV 48 [0 ffffffff 9 800] ------- [9:255 -1:255 28 0] [0x2 3 1 [15 0] [12 4]] (REQUEST)
D 0.005297894 _3_ MAC  COL 0 AODV 106 [0 ffffffff 9 800] ------- [9:255 -1:255 28 0] [0x2 3 1 [15 0] [12 4]] (REQUEST)
r 0.005298038 _6_ MAC  --- 0 AODV 48 [0 ffffffff 9 800] ------- [9:255 -1:255 28 0] [0x2 3 1 [15 0] [12 4]] (REQUEST)
D 0.005298253 _14_ MAC  COL 0 AODV 106 [0 ffffffff 9 800] ------- [9:255 -1:255 28 0] [0x2 3 1 [15 0] [12 4]] (REQUEST)
r 0.005322220 _8_ RTR  --- 0 AODV 48 [0 ffffffff 9 800] ------- [9:255 -1:255 28 0] [0x2 3 1 [15 0] [12 4]] (REQUEST)
r 0.005322299 _13_ RTR  --- 0 AODV 48 [0 ffffffff 9 800] ------- [9:255 -1:255 28 0] [0x2 3 1 [15 0] [12 4]] (REQUEST)
r 0.005322604 _15_ RTR  --- 0 AODV 48 [0 ffffffff 9 800] ------- [9:255 -1:255 28 0] [0x2 3 1 [15 0] [12 4]] (REQUEST)
s 0.005322604 _15_ RTR  --- 0 AODV 44 [0 0 0 0] ------- [15:255 12:255 30 9] [0x4 1 [15 4] 10.000000] (REPLY)
r 0.005322751 _7_ RTR  --- 0 AODV 48 [0 ffffffff 9 800] ------- [9:255 -1:255 28 0] [0x2 3 1 [15 0] [12 4]] (REQUEST)
r 0.005322880 _5_ RTR  --- 0 AODV 48 [0 ffffffff 9 800] ------- [9:255 -1:255 28 0] [0x2 3 1 [15 0] [12 4]] (REQUEST)
r 0.005323038 _6_ RTR  --- 0 AODV 48 [0 ffffffff 9 800] ------- [9:255 -1:255 28 0] [0x2 3 1 [15 0] [12 4]] (REQUEST)
s 0.005820475 _3_ RTR  --- 0 AODV 48 [0 ffffffff c 800] ------- [3:255 -1:255 29 0] [0x2 2 1 [15 0] [12 4]] (REQUEST)
s 0.005837604 _15_ MAC  --- 0 ARP 86 [0 ffffffff f 800] ------- [REQUEST 15/15 0/9]
r 0.006525934 _13_ MAC  --- 0 ARP 28 [0 ffffffff f 800] ------- [REQUEST 15/15 0/9]
r 0.006526073 _6_ MAC  --- 0 ARP 28 [0 ffffffff f 800] ------- [REQUEST 15/15 0/9]
r 0.006526076 _5_ MAC  --- 0 ARP 28 [0 ffffffff f 800] ------- [REQUEST 15/15 0/9]
r 0.006526347 _7_ MAC  --- 0 ARP 28 [0 ffffffff f 800] ------- [REQUEST 15/15 0/9]
r 0.006526652 _8_ MAC  --- 0 ARP 28 [0 ffffffff f 800] ------- [REQUEST 15/15 0/9]
r 0.006526655 _9_ MAC  --- 0 ARP 28 [0 ffffffff f 800] ------- [REQUEST 15/15 0/9]
r 0.006527308 _4_ MAC  --- 0 ARP 28 [0 ffffffff f 800] ------- [REQUEST 15/15 0/9]
s 0.006982146 _2_ MAC  --- 0 AODV 106 [0 ffffffff 2 800] ------- [2:255 -1:255 29 0] [0x2 2 1 [15 0] [12 4]] (REQUEST)
s 0.007797848 _10_ RTR  --- 0 AODV 48 [0 ffffffff c 800] ------- [10:255 -1:255 29 0] [0x2 2 1 [15 0] [12 4]] (REQUEST)
r 0.007830620 _14_ MAC  --- 0 AODV 48 [0 ffffffff 2 800] ------- [2:255 -1:255 29 0] [0x2 2 1 [15 0] [12 4]] (REQUEST)
r 0.007830806 _11_ MAC  --- 0 AODV 48 [0 ffffffff 2 800] ------- [2:255 -1:255 29 0] [0x2 2 1 [15 0] [12 4]] (REQUEST)
r 0.007830809 _3_ MAC  --- 0 AODV 48 [0 ffffffff 2 800] ------- [2:255 -1:255 29 0] [0x2 2 1 [15 0] [12 4]] (REQUEST)
r 0.007830891 _12_ MAC  --- 0 AODV 48 [0 ffffffff 2 800] ------- [2:255 -1:255 29 0] [0x2 2 1 [15 0] [12 4]] (REQUEST)
r 0.007830893 _0_ MAC  --- 0 AODV 48 [0 ffffffff 2 800] ------- [2:255 -1:255 29 0] [0x2 2 1 [15 0] [12 4]] (REQUEST)
r 0.007831479 _1_ MAC  --- 0 AODV 48 [0 ffffffff 2 800] ------- [2:255 -1:255 29 0] [0x2 2 1 [15 0] [12 4]] (REQUEST)
r 0.007831634 _10_ MAC  --- 0 AODV 48 [0 ffffffff 2 800] ------- [2:255 -1:255 29 0] [0x2 2 1 [15 0] [12 4]] (REQUEST)
r 0.007831640 _4_ MAC  --- 0 AODV 48 [0 ffffffff 2 800] ------- [2:255 -1:255 29 0] [0x2 2 1 [15 0] [12 4]] (REQUEST)
r 0.007855620 _14_ RTR  --- 0 AODV 48 [0 ffffffff 2 800] ------- [2:255 -1:255 29 0] [0x2 2 1 [15 0] [12 4]] (REQUEST)
r 0.007855806 _11_ RTR  --- 0 AODV 48 [0 ffffffff 2 800] ------- [2:255 -1:255 29 0] [0x2 2 1 [15 0] [12 4]] (REQUEST)
r 0.007855809 _3_ RTR  --- 0 AODV 48 [0 ffffffff 2 800] ------- [2:255 -1:255 29 0] [0x2 2 1 [15 0] [12 4]] (REQUEST)
r 0.007855891 _12_ RTR  --- 0 AODV 48 [0 ffffffff 2 800] ------- [2:255 -1:255 29 0] [0x2 2 1 [15 0] [12 4]] (REQUEST)
r 0.007855893 _0_ RTR  --- 0 AODV 48 [0 ffffffff 2 800] ------- [2:255 -1:255 29 0] [0x2 2 1 [15 0] [12 4]] (REQUEST)
r 0.007856479 _1_ RTR  --- 0 AODV 48 [0 ffffffff 2 800] ------- [2:255 -1:255 29 0] [0x2 2 1 [15 0] [12 4]] (REQUEST)
r 0.007856634 _10_ RTR  --- 0 AODV 48 [0 ffffffff 2 800] ------- [2:255 -1:255 29 0] [0x2 2 1 [15 0] [12 4]] (REQUEST)
r 0.007856640 _4_ RTR  --- 0 AODV 48 [0 ffffffff 2 800] ------- [2:255 -1:255 29 0] [0x2 2 1 [15 0] [12 4]] (REQUEST)
s 0.007903630 _7_ RTR  --- 0 AODV 48 [0 ffffffff 9 800] ------- [7:255 -1:255 27 0] [0x2 4 1 [15 0] [12 4]] (REQUEST)
s 0.008000000 _12_ AGT  --- 1 cbr 1000 [0 0 0 0] ------- [12:0 15:0 32 0] [1] 0 0
r 0.008000000 _12_ RTR  --- 1 cbr 1000 [0 0 0 0] ------- [12:0 15:0 32 0] [1] 0 0
s 0.008018630 _7_ MAC  --- 0 AODV 106 [0 ffffffff 7 800] ------- [7:255 -1:255 27 0] [0x2 4 1 [15 0] [12 4]] (REQUEST)
s 0.008020809 _3_ MAC  --- 0 AODV 106 [0 ffffffff 3 800] ------- [3:255 -1:255 29 0] [0x2 2 1 [15 0] [12 4]] (REQUEST)
D 0.008022149 _9_ MAC  COL 0 AODV 106 [0 ffffffff 7 800] ------- [7:255 -1:255 27 0] [0x2 4 1 [15 0] [12 4]] (REQUEST)
D 0.008022693 _5_ MAC  COL 0 AODV 106 [0 ffffffff 7 800] ------- [7:255 -1:255 27 0] [0x2 4 1 [15 0] [12 4]] (REQUEST)
s 0.008809709 _13_ RTR  --- 0 AODV 48 [0 ffffffff 9 800] ------- [13:255 -1:255 27 0] [0x2 4 1 [15 0] [12 4]] (REQUEST)
r 0.008867294 _13_ MAC  --- 0 AODV 48 [0 ffffffff 7 800] ------- [7:255 -1:255 27 0] [0x2 4 1 [15 0] [12 4]] (REQUEST)
r 0.008867368 _8_ MAC  --- 0 AODV 48 [0 ffffffff 7 800] ------- [7:255 -1:255 27 0] [0x2 4 1 [15 0] [12 4]] (REQUEST)
r 0.008867371 _6_ MAC  --- 0 AODV 48 [0 ffffffff 7 800] ------- [7:255 -1:255 27 0] [0x2 4 1 [15 0] [12 4]] (REQUEST)
r 0.008867373 _15_ MAC  --- 0 AODV 48 [0 ffffffff 7 800] ------- [7:255 -1:255 27 0] [0x2 4 1 [15 0] [12 4]] (REQUEST)
r 0.008869274 _14_ MAC  --- 0 AODV 48 [0 ffffffff 3 800] ------- [3:255 -1:255 29 0] [0x2 2 1 [15 0] [12 4]] (REQUEST)
r 0.008869473 _2_ MAC  --- 0 AODV 48 [0 ffffffff 3 800] ------- [3:255 -1:255 29 0] [0x2 2 1 [15 0] [12 4]] (REQUEST)
r 0.008869550 _12_ MAC  --- 0 AODV 48 [0 ffffffff 3 800] ------- [3:255 -1:255 29 0] [0x2 2 1 [15 0] [12 4]] (REQUEST)
r 0.008870006 _0_ MAC  --- 0 AODV 48 [0 ffffffff 3 800] ------- [3:255 -1:255 29 0] [0x2 2 1 [15 0] [12 4]] (REQUEST)
r 0.008870133 _11_ MAC  --- 0 AODV 48 [0 ffffffff 3 800] ------- [3:255 -1:255 29 0] [0x2 2 1 [15 0] [12 4]] (REQUEST)
D 0.008870143 _4_ MAC  COL 0 AODV 106 [0 ffffffff 3 800] ------- [3:255 -1:255 29 0] [0x2 2 1 [15 0] [12 4]] (REQUEST)
D 0.008870149 _9_ MAC  COL 0 AODV 106 [0 ffffffff 3 800] ------- [3:255 -1:255 29 0] [0x2 2 1 [15 0] [12 4]] (REQUEST)
r 0.008870294 _1_ MAC  --- 0 AODV 48 [0 ffffffff 3 800] ------- [3:255 -1:255 29 0] [0x2 2 1 [15 0] [12 4]] (REQUEST)
r 0.008892294 _13_ RTR  --- 0 AODV 48 [0 ffffffff 7 800] ------- [7:255 -1:255 27 0] [0x2 4 1 [15 0] [12 4]] (REQUEST)
r 0.008892368 _8_ RTR  --- 0 AODV 48 [0 ffffffff 7 800] ------- [7:255 -1:255 27 0] [0x2 4 1 [15 0] [12 4]] (REQUEST)
r 0.008892371 _6_ RTR  --- 0 AODV 48 [0 ffffffff 7 800] ------- [7:255 -1:255 27 0] [0x2 4 1 [15 0] [12 4]] (REQUEST)
r 0.008892373 _15_ RTR  --- 0 AODV 48 [0 ffffffff 7 800] ------- [7:255 -1:255 27 0] [0x2 4 1 [15 0] [12 4]] (REQUEST)
r 0.008894274 _14_ RTR  --- 0 AODV 48 [0 ffffffff 3 800] ------- [3:255 -1:255 29 0] [0x2 2 1 [15 0] [12 4]] (REQUEST)
r 0.008894473 _2_ RTR  --- 0 AODV 48 [0 ffffffff 3 800] ------- [3:255 -1:255 29 0] [0x2 2 1 [15 0] [12 4]] (REQUEST)
r 0.008894550 _12_ RTR  --- 0 AODV 48 [0 ffffffff 3 800] ------- [3:255 -1:255 29 0] [0x2 2 1 [15 0] [12 4]] (REQUEST)
r 0.008895006 _0_ RTR  --- 0 AODV 48 [0 ffffffff 3 800] ------- [3:255 -1:255 29 0] [0x2 2 1 [15 0] [12 4]] (REQUEST)
r 0.008895133 _11_ RTR  --- 0 AODV 48 [0 ffffffff 3 800] ------- [3:255 -1:255 29 0] [0x2 2 1 [15 0] [12 4]] (REQUEST)
r 0.008895294 _1_ RTR  --- 0 AODV 48 [0 ffffffff 3 800] ------- [3:255 -1:255 29 0] [0x2 2 1 [15 0] [12 4]] (REQUEST)
s 0.009304149 _9_ MAC  --- 0 RTS 44 [52e f 9 0] 
s 0.009400298 _1_ RTR  --- 0 AODV 48 [0 ffffffff c 800] ------- [1:255 -1:255 29 0] [0x2 2 1 [15 0] [12 4]] (REQUEST)
s 0.009409737 _5_ RTR  --- 0 AODV 48 [0 ffffffff 9 800] ------- [5:255 -1:255 27 0] [0x2 4 1 [15 0] [12 4]] (REQUEST)
s 0.009573509 _4_ RTR  --- 0 AODV 48 [0 ffffffff c 800] ------- [4:255 -1:255 29 0] [0x2 2 1 [15 0] [12 4]] (REQUEST)
r 0.009657200 _15_ MAC  --- 0 RTS 44 [52e f 9 0] 
s 0.009667200 _15_ MAC  --- 0 CTS 38 [3f4 9 0 0] 
s 0.009684686 _10_ MAC  --- 0 AODV 106 [0 ffffffff a 800] ------- [10:255 -1:255 29 0] [0x2 2 1 [15 0] [12 4]] (REQUEST)
r 0.009972251 _9_ MAC  --- 0 CTS 38 [3f4 9 0 0] 
s 0.009982251 _9_ MAC  --- 0 ARP 86 [13a f 9 800] ------- [REPLY 9/9 15/15]
D 0.009983950 _14_ MAC  COL 0 AODV 106 [0 ffffffff a 800] ------- [10:255 -1:255 29 0] [0x2 2 1 [15 0] [12 4]] (REQUEST)
D 0.009984048 _12_ MAC  COL 0 AODV 106 [0 ffffffff a 800] ------- [10:255 -1:255 29 0] [0x2 2 1 [15 0] [12 4]] (REQUEST)
D 0.009984139 _4_ MAC  COL 0 AODV 106 [0 ffffffff a 800] ------- [10:255 -1:255 29 0] [0x2 2 1 [15 0] [12 4]] (REQUEST)
D 0.009984255 _2_ MAC  COL 0 AODV 106 [0 ffffffff a 800] ------- [10:255 -1:255 29 0] [0x2 2 1 [15 0] [12 4]] (REQUEST)
s 0.010509526 _6_ RTR  --- 0 AODV 48 [0 ffffffff 9 800] ------- [6:255 -1:255 27 0] [0x2 4 1 [15 0] [12 4]] (REQUEST)
D 0.010533349 _1_ MAC  COL 0 AODV 106 [0 ffffffff a 800] ------- [10:255 -1:255 29 0] [0x2 2 1 [15 0] [12 4]] (REQUEST)
r 0.010533427 _0_ MAC  --- 0 AODV 48 [0 ffffffff a 800] ------- [10:255 -1:255 29 0] [0x2 2 1 [15 0] [12 4]] (REQUEST)
r 0.010534019 _11_ MAC  --- 0 AODV 48 [0 ffffffff a 800] ------- [10:255 -1:255 29 0] [0x2 2 1 [15 0] [12 4]] (REQUEST)
r 0.010558427 _0_ RTR  --- 0 AODV 48 [0 ffffffff a 800] ------- [10:255 -1:255 29 0] [0x2 2 1 [15 0] [12 4]] (REQUEST)
r 0.010559019 _11_ RTR  --- 0 AODV 48 [0 ffffffff a 800] ------- [10:255 -1:255 29 0] [0x2 2 1 [15 0] [12 4]] (REQUEST)
r 0.010671302 _15_ MAC  --- 0 ARP 28 [13a f 9 800] ------- [REPLY 9/9 15/15]
s 0.010681302 _15_ MAC  --- 0 ACK 38 [0 9 0 0] 
r 0.010986353 _9_ MAC  --- 0 ACK 38 [0 9 0 0] 
s 0.011195302 _15_ MAC  --- 0 RTS 44 [5ae 9 f 0] 
r 0.011548353 _9_ MAC  --- 0 RTS 44 [5ae 9 f 0] 
s 0.011558353 _9_ MAC  --- 0 CTS 38 [474 f 0 0] 
r 0.011863404 _15_ MAC  --- 0 CTS 38 [474 f 0 0] 
s 0.011873404 _15_ MAC  --- 0 AODV 102 [13a 9 f 800] ------- [15:255 12:255 30 9] [0x4 1 [15 4] 10.000000] (REPLY)
r 0.012690455 _9_ MAC  --- 0 AODV 44 [13a 9 f 800] ------- [15:255 12:255 30 9] [0x4 1 [15 4] 10.000000] (REPLY)
s 0.012700455 _9_ MAC  --- 0 ACK 38 [0 f 0 0] 
r 0.012715455 _9_ RTR  --- 0 AODV 44 [13a 9 f 800] ------- [15:255 12:255 30 9] [0x4 1 [15 4] 10.000000] (REPLY)
f 0.012715455 _9_ RTR  --- 0 AODV 44 [13a 9 f 800] ------- [15:255 12:255 29 14] [0x4 2 [15 4] 10.000000] (REPLY)
r 0.013005506 _15_ MAC  --- 0 ACK 38 [0 f 0 0] 
s 0.013114455 _9_ MAC  --- 0 ARP 86 [0 ffffffff 9 800] ------- [REQUEST 9/9 0/14]
s 0.013392506 _8_ RTR  --- 0 AODV 48 [0 ffffffff 9 800] ------- [8:255 -1:255 27 0] [0x2 4 1 [15 0] [12 4]] (REQUEST)
r 0.013803122 _8_ MAC  --- 0 ARP 28 [0 ffffffff 9 800] ------- [REQUEST 9/9 0/14]
r 0.013803200 _13_ MAC  --- 0 ARP 28 [0 ffffffff 9 800] ------- [REQUEST 9/9 0/14]
r 0.013803506 _15_ MAC  --- 0 ARP 28 [0 ffffffff 9 800] ------- [REQUEST 9/9 0/14]
r 0.013803652 _7_ MAC  --- 0 ARP 28 [0 ffffffff 9 800] ------- [REQUEST 9/9 0/14]
r 0.013803782 _5_ MAC  --- 0 ARP 28 [0 ffffffff 9 800] ------- [REQUEST 9/9 0/14]
r 0.013803795 _3_ MAC  --- 0 ARP 28 [0 ffffffff 9 800] ------- [REQUEST 9/9 0/14]
r 0.013803940 _6_ MAC  --- 0 ARP 28 [0 ffffffff 9 800] ------- [REQUEST 9/9 0/14]
r 0.013804154 _14_ MAC  --- 0 ARP 28 [0 ffffffff 9 800] ------- [REQUEST 9/9 0/14]
s 0.013913200 _13_ MAC  --- 0 AODV 106 [0 ffffffff d 800] ------- [13:255 -1:255 27 0] [0x2 4 1 [15 0] [12 4]] (REQUEST)
s 0.013913782 _5_ MAC  --- 0 AODV 106 [0 ffffffff 5 800] ------- [5:255 -1:255 27 0] [0x2 4 1 [15 0] [12 4]] (REQUEST)
D 0.013914253 _15_ MAC  COL 0 AODV 106 [0 ffffffff d 800] ------- [13:255 -1:255 27 0] [0x2 4 1 [15 0] [12 4]] (REQUEST)
D 0.013914452 _6_ MAC  COL 0 AODV 106 [0 ffffffff d 800] ------- [13:255 -1:255 27 0] [0x2 4 1 [15 0] [12 4]] (REQUEST)
r 0.014761864 _7_ MAC  --- 0 AODV 48 [0 ffffffff d 800] ------- [13:255 -1:255 27 0] [0x2 4 1 [15 0] [12 4]] (REQUEST)
r 0.014761943 _8_ MAC  --- 0 AODV 48 [0 ffffffff d 800] ------- [13:255 -1:255 27 0] [0x2 4 1 [15 0] [12 4]] (REQUEST)
r 0.014761946 _9_ MAC  --- 0 AODV 48 [0 ffffffff d 800] ------- [13:255 -1:255 27 0] [0x2 4 1 [15 0] [12 4]] (REQUEST)
D 0.014762253 _15_ MAC  COL 0 AODV 106 [0 ffffffff 5 800] ------- [5:255 -1:255 27 0] [0x2 4 1 [15 0] [12 4]] (REQUEST)
D 0.014762452 _6_ MAC  COL 0 AODV 106 [0 ffffffff 5 800] ------- [5:255 -1:255 27 0] [0x2 4 1 [15 0] [12 4]] (REQUEST)
D 0.014763115 _4_ MAC  COL 0 AODV 106 [0 ffffffff 5 800] ------- [5:255 -1:255 27 0] [0x2 4 1 [15 0] [12 4]] (REQUEST)
r 0.014786864 _7_ RTR  --- 0 AODV 48 [0 ffffffff d 800] ------- [13:255 -1:255 27 0] [0x2 4 1 [15 0] [12 4]] (REQUEST)
r 0.014786943 _8_ RTR  --- 0 AODV 48 [0 ffffffff d 800] ------- [13:255 -1:255 27 0] [0x2 4 1 [15 0] [12 4]] (REQUEST)
r 0.014786946 _9_ RTR  --- 0 AODV 48 [0 ffffffff d 800] ------- [13:255 -1:255 27 0] [0x2 4 1 [15 0] [12 4]] (REQUEST)
s 0.015257778 _1_ MAC  --- 0 AODV 106 [0 ffffffff 1 800] ------- [1:255 -1:255 29 0] [0x2 2 1 [15 0] [12 4]] (REQUEST)
s 0.015416452 _6_ MAC  --- 0 AODV 106 [0 ffffffff 6 800] ------- [6:255 -1:255 27 0] [0x2 4 1 [15 0] [12 4]] (REQUEST)
D 0.015418857 _3_ MAC  COL 0 AODV 106 [0 ffffffff 1 800] ------- [1:255 -1:255 29 0] [0x2 2 1 [15 0] [12 4]] (REQUEST)
s 0.016000000 _12_ AGT  --- 2 cbr 1000 [0 0 0 0] ------- [12:0 15:0 32 0] [2] 0 0
r 0.016000000 _12_ RTR  --- 2 cbr 1000 [0 0 0 0] ------- [12:0 15:0 32 0] [2] 0 0
r 0.016106442 _10_ MAC  --- 0 AODV 48 [0 ffffffff 1 800] ------- [1:255 -1:255 29 0] [0x2 2 1 [15 0] [12 4]] (REQUEST)
r 0.016106442 _4_ MAC  --- 0 AODV 48 [0 ffffffff 1 800] ------- [1:255 -1:255 29 0] [0x2 2 1 [15 0] [12 4]] (REQUEST)
r 0.016106521 _0_ MAC  --- 0 AODV 48 [0 ffffffff 1 800] ------- [1:255 -1:255 29 0] [0x2 2 1 [15 0] [12 4]] (REQUEST)
r 0.016106522 _12_ MAC  --- 0 AODV 48 [0 ffffffff 1 800] ------- [1:255 -1:255 29 0] [0x2 2 1 [15 0] [12 4]] (REQUEST)
r 0.016106832 _14_ MAC  --- 0 AODV 48 [0 ffffffff 1 800] ------- [1:255 -1:255 29 0] [0x2 2 1 [15 0] [12 4]] (REQUEST)
r 0.016107112 _2_ MAC  --- 0 AODV 48 [0 ffffffff 1 800] ------- [1:255 -1:255 29 0] [0x2 2 1 [15 0] [12 4]] (REQUEST)
r 0.016107268 _11_ MAC  --- 0 AODV 48 [0 ffffffff 1 800] ------- [1:255 -1:255 29 0] [0x2 2 1 [15 0] [12 4]] (REQUEST)
r 0.016131442 _10_ RTR  --- 0 AODV 48 [0 ffffffff 1 800] ------- [1:255 -1:255 29 0] [0x2 2 1 [15 0] [12 4]] (REQUEST)
r 0.016131442 _4_ RTR  --- 0 AODV 48 [0 ffffffff 1 800] ------- [1:255 -1:255 29 0] [0x2 2 1 [15 0] [12 4]] (REQUEST)
r 0.016131521 _0_ RTR  --- 0 AODV 48 [0 ffffffff 1 800] ------- [1:255 -1:255 29 0] [0x2 2 1 [15 0] [12 4]] (REQUEST)
r 0.016131522 _12_ RTR  --- 0 AODV 48 [0 ffffffff 1 800] ------- [1:255 -1:255 29 0] [0x2 2 1 [15 0] [12 4]] (REQUEST)
r 0.016131832 _14_ RTR  --- 0 AODV 48 [0 ffffffff 1 800] ------- [1:255 -1:255 29 0] [0x2 2 1 [15 0] [12 4]] (REQUEST)
r 0.016132112 _2_ RTR  --- 0 AODV 48 [0 ffffffff 1 800] ------- [1:255 -1:255 29 0] [0x2 2 1 [15 0] [12 4]] (REQUEST)
r 0.016132268 _11_ RTR  --- 0 AODV 48 [0 ffffffff 1 800] ------- [1:255 -1:255 29 0] [0x2 2 1 [15 0] [12 4]] (REQUEST)
D 0.016264921 _15_ MAC  COL 0 AODV 106 [0 ffffffff 6 800] ------- [6:255 -1:255 27 0] [0x2 4 1 [15 0] [12 4]] (REQUEST)
D 0.016265122 _5_ MAC  COL 0 AODV 106 [0 ffffffff 6 800] ------- [6:255 -1:255 27 0] [0x2 4 1 [15 0] [12 4]] (REQUEST)
D 0.016265191 _13_ MAC  COL 0 AODV 106 [0 ffffffff 6 800] ------- [6:255 -1:255 27 0] [0x2 4 1 [15 0] [12 4]] (REQUEST)
r 0.016265193 _7_ MAC  --- 0 AODV 48 [0 ffffffff 6 800] ------- [6:255 -1:255 27 0] [0x2 4 1 [15 0] [12 4]] (REQUEST)
r 0.016265775 _8_ MAC  --- 0 AODV 48 [0 ffffffff 6 800] ------- [6:255 -1:255 27 0] [0x2 4 1 [15 0] [12 4]] (REQUEST)
D 0.016265936 _9_ MAC  COL 0 AODV 106 [0 ffffffff 6 800] ------- [6:255 -1:255 27 0] [0x2 4 1 [15 0] [12 4]] (REQUEST)
r 0.016290193 _7_ RTR  --- 0 AODV 48 [0 ffffffff 6 800] ------- [6:255 -1:255 27 0] [0x2 4 1 [15 0] [12 4]] (REQUEST)
r 0.016290775 _8_ RTR  --- 0 AODV 48 [0 ffffffff 6 800] ------- [6:255 -1:255 27 0] [0x2 4 1 [15 0] [12 4]] (REQUEST)
s 0.016595775 _8_ MAC  --- 0 AODV 106 [0 ffffffff 8 800] ------- [8:255 -1:255 27 0] [0x2 4 1 [15 0] [12 4]] (REQUEST)
r 0.017444442 _9_ MAC  --- 0 AODV 48 [0 ffffffff 8 800] ------- [8:255 -1:255 27 0] [0x2 4 1 [15 0] [12 4]] (REQUEST)
r 0.017444513 _7_ MAC  --- 0 AODV 48 [0 ffffffff 8 800] ------- [8:255 -1:255 27 0] [0x2 4 1 [15 0] [12 4]] (REQUEST)
r 0.017444517 _13_ MAC  --- 0 AODV 48 [0 ffffffff 8 800] ------- [8:255 -1:255 27 0] [0x2 4 1 [15 0] [12 4]] (REQUEST)
r 0.017444823 _15_ MAC  --- 0 AODV 48 [0 ffffffff 8 800] ------- [8:255 -1:255 27 0] [0x2 4 1 [15 0] [12 4]] (REQUEST)
r 0.017445098 _6_ MAC  --- 0 AODV 48 [0 ffffffff 8 800] ------- [8:255 -1:255 27 0] [0x2 4 1 [15 0] [12 4]] (REQUEST)
r 0.017445258 _5_ MAC  --- 0 AODV 48 [0 ffffffff 8 800] ------- [8:255 -1:255 27 0] [0x2 4 1 [15 0] [12 4]] (REQUEST)
r 0.017469442 _9_ RTR  --- 0 AODV 48 [0 ffffffff 8 800] ------- [8:255 -1:255 27 0] [0x2 4 1 [15 0] [12 4]] (REQUEST)
r 0.017469513 _7_ RTR  --- 0 AODV 48 [0 ffffffff 8 800] ------- [8:255 -1:255 27 0] [0x2 4 1 [15 0] [12 4]] (REQUEST)
r 0.017469517 _13_ RTR  --- 0 AODV 48 [0 ffffffff 8 800] ------- [8:255 -1:255 27 0] [0x2 4 1 [15 0] [12 4]] (REQUEST)
r 0.017469823 _15_ RTR  --- 0 AODV 48 [0 ffffffff 8 800] ------- [8:255 -1:255 27 0] [0x2 4 1 [15 0] [12 4]] (REQUEST)
r 0.017470098 _6_ RTR  --- 0 AODV 48 [0 ffffffff 8 800] ------- [8:255 -1:255 27 0] [0x2 4 1 [15 0] [12 4]] (REQUEST)
r 0.017470258 _5_ RTR  --- 0 AODV 48 [0 ffffffff 8 800] ------- [8:255 -1:255 27 0] [0x2 4 1 [15 0] [12 4]] (REQUEST)
s 0.017880131 _14_ MAC  --- 0 RTS 44 [52e 9 e 0] 
s 0.017880180 _4_ MAC  --- 0 AODV 106 [0 ffffffff 4 800] ------- [4:255 -1:255 29 0] [0x2 2 1 [15 0] [12 4]] (REQUEST)
D 0.017882068 _9_ MAC  COL 0 RTS 44 [52e 9 e 0] 
D 0.018728843 _1_ MAC  COL 0 AODV 106 [0 ffffffff 4 800] ------- [4:255 -1:255 29 0] [0x2 2 1 [15 0] [12 4]] (REQUEST)
D 0.018729379 _0_ MAC  COL 0 AODV 106 [0 ffffffff 4 800] ------- [4:255 -1:255 29 0] [0x2 2 1 [15 0] [12 4]] (REQUEST)
D 0.018729506 _10_ MAC  COL 0 AODV 106 [0 ffffffff 4 800] ------- [4:255 -1:255 29 0] [0x2 2 1 [15 0] [12 4]] (REQUEST)
D 0.018729513 _5_ MAC  COL 0 AODV 106 [0 ffffffff 4 800] ------- [4:255 -1:255 29 0] [0x2 2 1 [15 0] [12 4]] (REQUEST)
D 0.018729883 _15_ MAC  COL 0 AODV 106 [0 ffffffff 4 800] ------- [4:255 -1:255 29 0] [0x2 2 1 [15 0] [12 4]] (REQUEST)
s 0.019943236 _14_ MAC  --- 0 RTS 44 [52e 9 e 0] 
r 0.020296935 _9_ MAC  --- 0 RTS 44 [52e 9 e 0] 
s 0.020306935 _9_ MAC  --- 0 CTS 38 [3f4 e 0 0] 
r 0.020612634 _14_ MAC  --- 0 CTS 38 [3f4 e 0 0] 
s 0.020622634 _14_ MAC  --- 0 ARP 86 [13a 9 e 800] ------- [REPLY 14/14 9/9]
r 0.021312333 _9_ MAC  --- 0 ARP 28 [13a 9 e 800] ------- [REPLY 14/14 9/9]
s 0.021322333 _9_ MAC  --- 0 ACK 38 [0 e 0 0] 
r 0.021628032 _14_ MAC  --- 0 ACK 38 [0 e 0 0] 
s 0.021896333 _9_ MAC  --- 0 RTS 44 [5ae e 9 0] 
r 0.022250032 _14_ MAC  --- 0 RTS 44 [5ae e 9 0] 
s 0.022260032 _14_ MAC  --- 0 CTS 38 [474 9 0 0] 
r 0.022565731 _9_ MAC  --- 0 CTS 38 [474 9 0 0] 
s 0.022575731 _9_ MAC  --- 0 AODV 102 [13a e 9 800] ------- [15:255 12:255 29 14] [0x4 2 [15 4] 10.000000] (REPLY)
r 0.023393430 _14_ MAC  --- 0 AODV 44 [13a e 9 800] ------- [15:255 12:255 29 14] [0x4 2 [15 4] 10.000000] (REPLY)
s 0.023403430 _14_ MAC  --- 0 ACK 38 [0 9 0 0] 
r 0.023418430 _14_ RTR  --- 0 AODV 44 [13a e 9 800] ------- [15:255 12:255 29 14] [0x4 2 [15 4] 10.000000] (REPLY)
f 0.023418430 _14_ RTR  --- 0 AODV 44 [13a e 9 800] ------- [15:255 12:255 28 12] [0x4 3 [15 4] 10.000000] (REPLY)
r 0.023709129 _9_ MAC  --- 0 ACK 38 [0 9 0 0] 
s 0.023877430 _14_ MAC  --- 0 ARP 86 [0 ffffffff e 800] ------- [REQUEST 14/14 0/12]
s 0.024000000 _12_ AGT  --- 3 cbr 1000 [0 0 0 0] ------- [12:0 15:0 32 0] [3] 0 0
r 0.024000000 _12_ RTR  --- 3 cbr 1000 [0 0 0 0] ------- [12:0 15:0 32 0] [3] 0 0
r 0.024565763 _12_ MAC  --- 0 ARP 28 [0 ffffffff e 800] ------- [REQUEST 14/14 0/12]
r 0.024565894 _3_ MAC  --- 0 ARP 28 [0 ffffffff e 800] ------- [REQUEST 14/14 0/12]
r 0.024565904 _2_ MAC  --- 0 ARP 28 [0 ffffffff e 800] ------- [REQUEST 14/14 0/12]
r 0.024566177 _0_ MAC  --- 0 ARP 28 [0 ffffffff e 800] ------- [REQUEST 14/14 0/12]
r 0.024566481 _11_ MAC  --- 0 ARP 28 [0 ffffffff e 800] ------- [REQUEST 14/14 0/12]
r 0.024566484 _1_ MAC  --- 0 ARP 28 [0 ffffffff e 800] ------- [REQUEST 14/14 0/12]
r 0.024566486 _4_ MAC  --- 0 ARP 28 [0 ffffffff e 800] ------- [REQUEST 14/14 0/12]
r 0.024566842 _10_ MAC  --- 0 ARP 28 [0 ffffffff e 800] ------- [REQUEST 14/14 0/12]
r 0.024567129 _9_ MAC  --- 0 ARP 28 [0 ffffffff e 800] ------- [REQUEST 14/14 0/12]
s 0.024720763 _12_ MAC  --- 0 RTS 44 [52e e c 0] 
r 0.025073097 _14_ MAC  --- 0 RTS 44 [52e e c 0] 
s 0.025083097 _14_ MAC  --- 0 CTS 38 [3f4 c 0 0] 
r 0.025387430 _12_ MAC  --- 0 CTS 38 [3f4 c 0 0] 